## written on 15Feb2017 at 12:54:37  with use_ws_distance=.true.
   -4    0    2    1    1
    2
    0    0    0
    6    0   -6
   -4    0    2    1    2
    1
    6    0   -6
   -4    0    2    1    3
    1
    6    0   -6
