 written on 21Oct2021 at 11:56:00 
  -2.69880000000000       0.000000000000000E+000   2.69880000000000     
  0.000000000000000E+000   2.69880000000000        2.69880000000000     
  -2.69880000000000        2.69880000000000       0.000000000000000E+000
           8
          93
    4    6    2    2    2    1    2    2    1    1    2    6    2    2    2
    6    2    2    4    1    1    1    4    1    1    1    1    2    1    1
    1    2    2    1    1    2    4    2    1    2    1    1    1    1    2
    1    1    1    2    1    1    1    1    2    1    2    4    2    1    1
    2    2    1    1    1    2    1    1    1    1    4    1    1    1    4
    2    2    6    2    2    2    6    2    1    1    2    2    1    2    2
    2    6    4

   -3    1    1
    1    1    0.64955647E-01  0.19485319E-04
    2    1   -0.12062256E-01  0.13048707E-04
    3    1   -0.12070412E-01 -0.24015178E-04
    4    1   -0.12062532E-01 -0.60797508E-05
    5    1    0.32983489E-01 -0.12184475E-04
    6    1    0.90588414E-02  0.27723419E-05
    7    1    0.90687057E-02  0.98395628E-05
    8    1    0.90578715E-02  0.23642102E-05
    1    2   -0.12066558E-01  0.96642919E-05
    2    2    0.64955176E-01 -0.10550768E-05
    3    2   -0.12061795E-01  0.61805351E-06
    4    2   -0.12065198E-01 -0.75760369E-06
    5    2    0.90584738E-02 -0.69188977E-07
    6    2   -0.25542594E-01 -0.93844879E-05
    7    2   -0.15876943E-01  0.70457964E-05
    8    2   -0.15872365E-01 -0.66351454E-05
    1    3   -0.12062375E-01 -0.24359373E-04
    2    3   -0.12064402E-01 -0.39956291E-05
    3    3    0.64956498E-01  0.19187577E-05
    4    3   -0.12064872E-01  0.22583676E-04
    5    3    0.90608172E-02  0.17335397E-04
    6    3   -0.15871383E-01  0.63074743E-05
    7    3   -0.25541615E-01 -0.14500121E-04
    8    3   -0.15878367E-01 -0.13140258E-04
    1    4   -0.12062210E-01 -0.12889122E-04
    2    4   -0.12065000E-01 -0.13130591E-04
    3    4   -0.12062117E-01  0.23320920E-04
    4    4    0.64954403E-01 -0.66618761E-05
    5    4    0.90581226E-02 -0.32758966E-05
    6    4   -0.15877628E-01 -0.50493650E-05
    7    4   -0.15871056E-01 -0.12894480E-04
    8    4   -0.25541425E-01  0.16736792E-04
    1    5   -0.42256608E-01 -0.51833580E-04
    2    5    0.94942886E-02  0.39513078E-05
    3    5    0.95017321E-02  0.16515449E-04
    4    5    0.94950658E-02  0.14397985E-04
    5    5    0.64955697E-01  0.19008717E-04
    6    5   -0.12067125E-01  0.12406986E-04
    7    5   -0.12061539E-01 -0.29517916E-04
    8    5   -0.12066308E-01 -0.95529031E-05
    1    6    0.94889508E-02  0.31667438E-05
    2    6    0.19081174E-01  0.78279778E-06
    3    6   -0.22230309E-01 -0.48649469E-05
    4    6   -0.22227057E-01  0.10891640E-04
    5    6   -0.12058991E-01  0.15546931E-04
    6    6    0.64952453E-01 -0.18646009E-05
    7    6   -0.12069563E-01 -0.32620542E-05
    8    6   -0.12061906E-01 -0.17039832E-04
    1    7    0.94961903E-02  0.22590709E-04
    2    7   -0.22225771E-01 -0.99886756E-05
    3    7    0.19076357E-01  0.59553577E-05
    4    7   -0.22234126E-01 -0.16137611E-04
    5    7   -0.12067405E-01 -0.33039339E-04
    6    7   -0.12058370E-01  0.29221494E-05
    7    7    0.64955883E-01  0.42302661E-05
    8    7   -0.12065295E-01  0.27746273E-04
    1    8    0.94942968E-02  0.10349461E-04
    2    8   -0.22230816E-01  0.13495684E-04
    3    8   -0.22230305E-01 -0.11033241E-04
    4    8    0.19082586E-01 -0.25026229E-05
    5    8   -0.12064033E-01  0.13506220E-05
    6    8   -0.12066155E-01 -0.49530701E-05
    7    8   -0.12062586E-01  0.22010904E-04
    8    8    0.64955523E-01 -0.76884555E-05

   -2   -2    2
    1    1    0.44832262E-02 -0.20943097E-17
    2    1   -0.37185694E-02  0.36718416E-05
    3    1   -0.37177249E-02 -0.11487173E-05
    4    1   -0.37188618E-02 -0.73529097E-05
    5    1   -0.16626135E-01 -0.92411421E-05
    6    1    0.55167867E-02  0.83482416E-05
    7    1    0.55161526E-02 -0.63271386E-05
    8    1    0.55191239E-02  0.74125641E-05
    1    2   -0.37185694E-02 -0.36718416E-05
    2    2    0.44822777E-02  0.13660367E-16
    3    2   -0.37167980E-02  0.10198524E-05
    4    2   -0.37170757E-02  0.37881515E-05
    5    2    0.55187279E-02  0.81882399E-05
    6    2    0.10964075E-02  0.27633566E-05
    7    2   -0.92403675E-04  0.23809949E-05
    8    2   -0.93133325E-04 -0.98361152E-05
    1    3   -0.37177249E-02  0.11487173E-05
    2    3   -0.37167980E-02 -0.10198524E-05
    3    3    0.44818566E-02  0.13917673E-16
    4    3   -0.37176214E-02 -0.10860618E-06
    5    3    0.55150299E-02 -0.77629267E-05
    6    3   -0.91797008E-04  0.22014167E-05
    7    3    0.10971431E-02  0.14715151E-05
    8    3   -0.92192670E-04  0.46191714E-05
    1    4   -0.37188618E-02  0.73529097E-05
    2    4   -0.37170757E-02 -0.37881515E-05
    3    4   -0.37176214E-02  0.10860618E-06
    4    4    0.44830534E-02  0.89202287E-17
    5    4    0.55187769E-02  0.84026053E-05
    6    4   -0.92778500E-04 -0.99956195E-05
    7    4   -0.92744179E-04  0.39953321E-05
    8    4    0.10959828E-02  0.28636472E-06
    1    5   -0.16626135E-01  0.92411421E-05
    2    5    0.55187279E-02 -0.81882399E-05
    3    5    0.55150299E-02  0.77629267E-05
    4    5    0.55187769E-02 -0.84026053E-05
    5    5    0.44839215E-02 -0.36850344E-16
    6    5   -0.37169450E-02 -0.34713642E-05
    7    5   -0.37190585E-02 -0.20754530E-06
    8    5   -0.37184438E-02  0.84070664E-05
    1    6    0.55167867E-02 -0.83482416E-05
    2    6    0.10964075E-02 -0.27633566E-05
    3    6   -0.91797008E-04 -0.22014167E-05
    4    6   -0.92778500E-04  0.99956195E-05
    5    6   -0.37169450E-02  0.34713642E-05
    6    6    0.44818514E-02 -0.10082446E-16
    7    6   -0.37170928E-02  0.19348335E-06
    8    6   -0.37185095E-02 -0.46410198E-05
    1    7    0.55161526E-02  0.63271386E-05
    2    7   -0.92403675E-04 -0.23809949E-05
    3    7    0.10971431E-02 -0.14715151E-05
    4    7   -0.92744179E-04 -0.39953321E-05
    5    7   -0.37190585E-02  0.20754530E-06
    6    7   -0.37170928E-02 -0.19348335E-06
    7    7    0.44810830E-02 -0.27490441E-17
    8    7   -0.37168742E-02 -0.32230340E-06
    1    8    0.55191239E-02 -0.74125641E-05
    2    8   -0.93133325E-04  0.98361152E-05
    3    8   -0.92192670E-04 -0.46191714E-05
    4    8    0.10959828E-02 -0.28636472E-06
    5    8   -0.37184438E-02 -0.84070664E-05
    6    8   -0.37185095E-02  0.46410198E-05
    7    8   -0.37168742E-02  0.32230340E-06
    8    8    0.44828053E-02 -0.23353132E-16

   -2   -1    1
    1    1   -0.18052355E-01  0.46375398E-05
    2    1    0.23879225E-02 -0.33172508E-05
    3    1    0.18657388E-02  0.10667488E-04
    4    1    0.23873407E-02 -0.39551296E-05
    5    1    0.10969742E-02  0.32550214E-05
    6    1   -0.92074645E-04  0.72726897E-06
    7    1    0.55164683E-02 -0.32343037E-05
    8    1   -0.92706017E-04 -0.85062612E-06
    1    2    0.77175337E-02 -0.54253566E-05
    2    2   -0.45941846E-02 -0.91954795E-06
    3    2    0.23863882E-02 -0.57560632E-05
    4    2   -0.87859374E-02  0.88434161E-05
    5    2   -0.93137959E-04  0.13748595E-05
    6    2    0.10980912E-02 -0.87148122E-06
    7    2    0.55157018E-02 -0.77643886E-06
    8    2   -0.91794831E-04  0.26564272E-05
    1    3    0.62366650E-02  0.10908607E-04
    2    3    0.77173969E-02 -0.22164870E-05
    3    3   -0.18052941E-01 -0.19858844E-05
    4    3    0.77177815E-02  0.55855657E-05
    5    3    0.55169277E-02 -0.22474721E-05
    6    3    0.55164875E-02 -0.97639460E-06
    7    3   -0.16622750E-01  0.34660449E-05
    8    3    0.55162664E-02  0.25643774E-05
    1    4    0.77183532E-02  0.83789984E-05
    2    4   -0.87863023E-02  0.11074531E-04
    3    4    0.23879064E-02 -0.93555513E-05
    4    4   -0.45953719E-02 -0.11970830E-04
    5    4   -0.93188122E-04 -0.23362834E-05
    6    4   -0.92861380E-04  0.21560690E-05
    7    4    0.55179116E-02  0.38019565E-05
    8    4    0.10975155E-02 -0.25374935E-05
    1    5    0.14532029E-01  0.20916665E-04
    2    5   -0.16468393E-01 -0.40622820E-05
    3    5    0.82261622E-02 -0.10470114E-04
    4    5   -0.16464755E-01  0.68024319E-05
    5    5   -0.18054653E-01  0.87047296E-05
    6    5    0.77189652E-02 -0.83417337E-05
    7    5    0.62368845E-02  0.11745277E-04
    8    5    0.77204731E-02  0.44634852E-05
    1    6   -0.16474356E-01 -0.87031973E-05
    2    6    0.13874421E-02  0.19845012E-06
    3    6    0.11492780E-01 -0.80644320E-05
    4    6    0.36247576E-02  0.37486270E-05
    5    6    0.23879333E-02 -0.30587574E-05
    6    6   -0.45947780E-02 -0.22356677E-05
    7    6    0.77138190E-02 -0.23973286E-05
    8    6   -0.87849951E-02  0.11433355E-04
    1    7    0.82362527E-02 -0.41381451E-05
    2    7    0.11491728E-01 -0.12255630E-04
    3    7   -0.12547382E-01 -0.34488986E-05
    4    7    0.11491852E-01  0.17547256E-04
    5    7    0.18675945E-02  0.62262842E-05
    6    7    0.23881129E-02 -0.91481019E-06
    7    7   -0.18051727E-01 -0.13976680E-05
    8    7    0.23849442E-02 -0.60025553E-05
    1    8   -0.16467947E-01 -0.22223327E-05
    2    8    0.36227899E-02  0.60258673E-05
    3    8    0.11492655E-01  0.23897446E-04
    4    8    0.13827991E-02 -0.31383451E-04
    5    8    0.23860524E-02 -0.18873036E-05
    6    8   -0.87859064E-02  0.77452460E-05
    7    8    0.77184132E-02  0.25572493E-05
    8    8   -0.45945188E-02 -0.13151986E-04

   -2   -1    2
    1    1   -0.18054326E-01  0.39244799E-05
    2    1    0.18686388E-02 -0.79140203E-05
    3    1    0.23855526E-02  0.36266696E-05
    4    1    0.23888230E-02  0.59981703E-05
    5    1    0.10985738E-02  0.48396540E-05
    6    1    0.55169389E-02 -0.10234630E-04
    7    1   -0.93263520E-04  0.48709793E-05
    8    1   -0.93039474E-04  0.73604528E-06
    1    2    0.62394488E-02  0.50024275E-05
    2    2   -0.18051452E-01  0.69256937E-06
    3    2    0.77182919E-02  0.23477617E-05
    4    2    0.77162234E-02 -0.71119107E-05
    5    2    0.55151735E-02 -0.10291539E-04
    6    2   -0.16623373E-01  0.34440921E-06
    7    2    0.55187650E-02  0.12631831E-05
    8    2    0.55156414E-02  0.65182336E-05
    1    3    0.77169233E-02  0.38854631E-05
    2    3    0.23859794E-02  0.19549707E-05
    3    3   -0.45934277E-02 -0.55126355E-06
    4    3   -0.87855516E-02 -0.29721426E-05
    5    3   -0.91842514E-04  0.54776822E-05
    6    3    0.55169324E-02 -0.33342689E-06
    7    3    0.10973171E-02 -0.22826107E-05
    8    3   -0.92271022E-04 -0.47393023E-05
    1    4    0.77178662E-02 -0.14111854E-04
    2    4    0.23847928E-02  0.17519794E-05
    3    4   -0.87842429E-02  0.12795612E-05
    4    4   -0.45956115E-02  0.41707004E-05
    5    4   -0.92841429E-04  0.53836753E-06
    6    4    0.55158044E-02  0.87526315E-05
    7    4   -0.91493894E-04 -0.48607194E-05
    8    4    0.10972417E-02 -0.66257811E-05
    1    5    0.14539111E-01 -0.18001459E-04
    2    5    0.82243981E-02  0.11895696E-05
    3    5   -0.16467100E-01 -0.16617617E-04
    4    5   -0.16467930E-01  0.20379550E-04
    5    5   -0.18052532E-01  0.14721170E-05
    6    5    0.62367298E-02  0.51696348E-05
    7    5    0.77168619E-02  0.79617656E-05
    8    5    0.77208857E-02 -0.15474651E-04
    1    6    0.82291426E-02 -0.39463508E-06
    2    6   -0.12542833E-01  0.42274461E-06
    3    6    0.11491242E-01  0.19514236E-04
    4    6    0.11492058E-01 -0.21739858E-04
    5    6    0.18648614E-02 -0.75463829E-05
    6    6   -0.18053088E-01  0.99132233E-06
    7    6    0.23882036E-02  0.13235745E-05
    8    6    0.23866857E-02 -0.68613996E-06
    1    7   -0.16470373E-01 -0.67889937E-05
    2    7    0.11493727E-01  0.12373957E-04
    3    7    0.13805013E-02 -0.20204847E-04
    4    7    0.36237259E-02 -0.25244485E-05
    5    7    0.23877590E-02  0.26060643E-06
    6    7    0.77193840E-02  0.62910846E-05
    7    7   -0.45962829E-02 -0.48373974E-06
    8    7   -0.87844374E-02  0.37839742E-05
    1    8   -0.16467136E-01  0.15534914E-04
    2    8    0.11493059E-01 -0.17841644E-04
    3    8    0.36238099E-02  0.12861941E-05
    4    8    0.13833711E-02  0.19463602E-04
    5    8    0.23896099E-02  0.94571314E-05
    6    8    0.77184392E-02 -0.10334096E-04
    7    8   -0.87874539E-02 -0.44473666E-05
    8    8   -0.45962034E-02  0.47818004E-05

   -2    0    0
    1    1   -0.13860586E-01  0.38564261E-15
    2    1    0.43329720E-02 -0.46329315E-05
    3    1   -0.68912524E-01 -0.71942841E-05
    4    1    0.43353515E-02  0.19787742E-04
    5    1   -0.12546056E-01  0.11494285E-04
    6    1    0.11492137E-01 -0.12251515E-04
    7    1    0.82316954E-02  0.14989737E-04
    8    1    0.11492910E-01 -0.76781148E-05
    1    2    0.43329720E-02  0.46329315E-05
    2    2   -0.51284375E-02  0.37432993E-15
    3    2    0.43392592E-02  0.62895454E-05
    4    2    0.29032269E-01 -0.13772765E-04
    5    2    0.11494504E-01 -0.13147956E-04
    6    2    0.13825780E-02  0.13315025E-07
    7    2   -0.16473119E-01 -0.26897636E-06
    8    2    0.36226926E-02  0.12762822E-04
    1    3   -0.68912524E-01  0.71942841E-05
    2    3    0.43392592E-02 -0.62895454E-05
    3    3   -0.13874609E-01  0.36682195E-15
    4    3    0.43402205E-02  0.13544859E-04
    5    3    0.82219204E-02  0.71736311E-05
    6    3   -0.16465510E-01  0.24035548E-05
    7    3    0.14540394E-01  0.60262692E-05
    8    3   -0.16464901E-01 -0.15808180E-04
    1    4    0.43353515E-02 -0.19787742E-04
    2    4    0.29032269E-01  0.13772765E-04
    3    4    0.43402205E-02 -0.13544859E-04
    4    4   -0.51319675E-02  0.37969122E-15
    5    4    0.11494929E-01 -0.83162189E-05
    6    4    0.36218577E-02  0.12281341E-04
    7    4   -0.16467804E-01 -0.21930226E-04
    8    4    0.13803417E-02 -0.59738665E-06
    1    5   -0.12546056E-01 -0.11494285E-04
    2    5    0.11494504E-01  0.13147956E-04
    3    5    0.82219204E-02 -0.71736311E-05
    4    5    0.11494929E-01  0.83162189E-05
    5    5   -0.13869136E-01  0.39247663E-15
    6    5    0.43354054E-02  0.15049366E-06
    7    5   -0.68913464E-01 -0.10054966E-05
    8    5    0.43434986E-02 -0.20005898E-04
    1    6    0.11492137E-01  0.12251515E-04
    2    6    0.13825780E-02 -0.13315025E-07
    3    6   -0.16465510E-01 -0.24035548E-05
    4    6    0.36218577E-02 -0.12281341E-04
    5    6    0.43354054E-02 -0.15049366E-06
    6    6   -0.51299781E-02  0.35300762E-15
    7    6    0.43359167E-02 -0.42377668E-05
    8    6    0.29033312E-01  0.13239830E-04
    1    7    0.82316954E-02 -0.14989737E-04
    2    7   -0.16473119E-01  0.26897636E-06
    3    7    0.14540394E-01 -0.60262692E-05
    4    7   -0.16467804E-01  0.21930226E-04
    5    7   -0.68913464E-01  0.10054966E-05
    6    7    0.43359167E-02  0.42377668E-05
    7    7   -0.13865148E-01  0.34855918E-15
    8    7    0.43312214E-02 -0.19927928E-04
    1    8    0.11492910E-01  0.76781148E-05
    2    8    0.36226926E-02 -0.12762822E-04
    3    8   -0.16464901E-01  0.15808180E-04
    4    8    0.13803417E-02  0.59738665E-06
    5    8    0.43434986E-02  0.20005898E-04
    6    8    0.29033312E-01 -0.13239830E-04
    7    8    0.43312214E-02  0.19927928E-04
    8    8   -0.51329025E-02  0.34533565E-15

   -2    0    1
    1    1    0.13525845E-01 -0.38948305E-05
    2    1   -0.17138301E-01  0.74884095E-05
    3    1   -0.17131064E-01 -0.39681890E-04
    4    1    0.43466983E-02  0.32313277E-04
    5    1   -0.12710009E-01 -0.16643292E-05
    6    1    0.96291564E-02  0.17092575E-05
    7    1    0.96299014E-02  0.95409263E-05
    8    1    0.11412305E-01 -0.40405274E-06
    1    2    0.56251649E-01 -0.28084410E-05
    2    2   -0.60675042E-02 -0.30544465E-05
    3    2   -0.10444321E-01  0.17183382E-04
    4    2    0.22197615E-01 -0.12533125E-04
    5    2    0.96263764E-02  0.75207626E-05
    6    2   -0.15327015E-01 -0.37450082E-05
    7    2   -0.19313685E-01 -0.16709697E-04
    8    2    0.14533892E-01  0.56773929E-05
    1    3    0.56248077E-01 -0.19423011E-04
    2    3   -0.10440211E-01  0.21143977E-05
    3    3   -0.60711594E-02  0.82529828E-06
    4    3    0.22193301E-01  0.10532297E-04
    5    3    0.96275360E-02  0.33611834E-05
    6    3   -0.19315260E-01 -0.73187994E-05
    7    3   -0.15321885E-01 -0.22656781E-04
    8    3    0.14534370E-01  0.22028934E-05
    1    4   -0.50850057E-01  0.12216610E-04
    2    4    0.14859683E-01 -0.80959438E-05
    3    4    0.14861790E-01  0.19967918E-04
    4    4   -0.16435241E-01 -0.20364339E-04
    5    4    0.11415776E-01  0.17976577E-05
    6    4    0.14531210E-01  0.32758008E-05
    7    4    0.14530160E-01 -0.81470188E-06
    8    4   -0.33738854E-01  0.57174452E-05
    1    5    0.19081951E-01 -0.69345696E-05
    2    5   -0.22228624E-01 -0.10541429E-04
    3    5   -0.22233562E-01  0.15028993E-04
    4    5    0.94978608E-02 -0.10698309E-04
    5    5    0.13535235E-01 -0.11568604E-04
    6    5    0.56242630E-01  0.74611146E-06
    7    5    0.56245775E-01 -0.22286342E-04
    8    5   -0.50844940E-01  0.15320810E-04
    1    6   -0.22227030E-01 -0.70478308E-05
    2    6    0.19079215E-01  0.10197896E-05
    3    6   -0.22227018E-01  0.55775391E-05
    4    6    0.94912792E-02  0.34560322E-05
    5    6   -0.17139255E-01  0.83663404E-05
    6    6   -0.60713622E-02  0.14948197E-05
    7    6   -0.10444385E-01  0.56685484E-05
    8    6    0.14866902E-01 -0.10876743E-04
    1    7   -0.22231777E-01  0.87617345E-05
    2    7   -0.22230165E-01  0.12094788E-04
    3    7    0.19081496E-01 -0.67241310E-05
    4    7    0.94926179E-02 -0.15482571E-04
    5    7   -0.17134066E-01 -0.28245301E-04
    6    7   -0.10431632E-01  0.15580015E-04
    7    7   -0.60665714E-02  0.31850297E-05
    8    7    0.14854732E-01  0.10014849E-04
    1    8    0.94911024E-02 -0.38254983E-05
    2    8    0.94937122E-02  0.64055607E-06
    3    8    0.94976212E-02 -0.23046871E-04
    4    8   -0.42252593E-01  0.41459571E-04
    5    8    0.43486236E-02  0.18380698E-04
    6    8    0.22195198E-01 -0.24982450E-04
    7    8    0.22200253E-01  0.17672264E-04
    8    8   -0.16441681E-01 -0.96092851E-05

   -2    0    2
    1    1   -0.13863991E-01 -0.96722037E-17
    2    1   -0.68915287E-01  0.11642810E-04
    3    1    0.43372030E-02  0.12258930E-04
    4    1    0.43328345E-02 -0.15926235E-04
    5    1   -0.12550577E-01 -0.65485241E-05
    6    1    0.82327282E-02  0.59338812E-05
    7    1    0.11495674E-01 -0.15551603E-04
    8    1    0.11492902E-01  0.16499496E-05
    1    2   -0.68915287E-01 -0.11642810E-04
    2    2   -0.13863217E-01 -0.94713969E-17
    3    2    0.43341273E-02 -0.50360045E-06
    4    2    0.43425519E-02  0.29394076E-05
    5    2    0.82331995E-02  0.85399773E-05
    6    2    0.14533724E-01  0.34673082E-06
    7    2   -0.16471385E-01  0.18884512E-04
    8    2   -0.16467105E-01 -0.29210213E-04
    1    3    0.43372030E-02 -0.12258930E-04
    2    3    0.43341273E-02  0.50360045E-06
    3    3   -0.51292528E-02  0.33833625E-16
    4    3    0.29031622E-01 -0.26788233E-04
    5    3    0.11492118E-01 -0.15340052E-04
    6    3   -0.16469617E-01  0.23656153E-04
    7    3    0.13851604E-02  0.15693240E-04
    8    3    0.36233065E-02 -0.27469144E-05
    1    4    0.43328345E-02  0.15926235E-04
    2    4    0.43425519E-02 -0.29394076E-05
    3    4    0.29031622E-01  0.26788233E-04
    4    4   -0.51276393E-02 -0.32907992E-17
    5    4    0.11491752E-01  0.21115752E-05
    6    4   -0.16473293E-01 -0.31462820E-04
    7    4    0.36244600E-02 -0.30895739E-05
    8    4    0.13831142E-02  0.96161150E-05
    1    5   -0.12550577E-01  0.65485241E-05
    2    5    0.82331995E-02 -0.85399773E-05
    3    5    0.11492118E-01  0.15340052E-04
    4    5    0.11491752E-01 -0.21115752E-05
    5    5   -0.13866537E-01 -0.52632310E-16
    6    5   -0.68913872E-01 -0.77709170E-05
    7    5    0.43390786E-02 -0.22253580E-04
    8    5    0.43329816E-02  0.26636133E-04
    1    6    0.82327282E-02 -0.59338812E-05
    2    6    0.14533724E-01 -0.34673082E-06
    3    6   -0.16469617E-01 -0.23656153E-04
    4    6   -0.16473293E-01  0.31462820E-04
    5    6   -0.68913872E-01  0.77709170E-05
    6    6   -0.13858571E-01 -0.32721931E-16
    7    6    0.43343388E-02  0.96172547E-05
    8    6    0.43368351E-02 -0.73813976E-05
    1    7    0.11495674E-01  0.15551603E-04
    2    7   -0.16471385E-01 -0.18884512E-04
    3    7    0.13851604E-02 -0.15693240E-04
    4    7    0.36244600E-02  0.30895739E-05
    5    7    0.43390786E-02  0.22253580E-04
    6    7    0.43343388E-02 -0.96172547E-05
    7    7   -0.51293490E-02  0.23809061E-17
    8    7    0.29032198E-01  0.22789856E-04
    1    8    0.11492902E-01 -0.16499496E-05
    2    8   -0.16467105E-01  0.29210213E-04
    3    8    0.36233065E-02  0.27469144E-05
    4    8    0.13831142E-02 -0.96161150E-05
    5    8    0.43329816E-02 -0.26636133E-04
    6    8    0.43368351E-02  0.73813976E-05
    7    8    0.29032198E-01 -0.22789856E-04
    8    8   -0.51328133E-02  0.11572024E-16

   -2    1   -1
    1    1   -0.18052355E-01 -0.46375398E-05
    2    1    0.77175337E-02  0.54253566E-05
    3    1    0.62366650E-02 -0.10908607E-04
    4    1    0.77183532E-02 -0.83789984E-05
    5    1    0.14532029E-01 -0.20916665E-04
    6    1   -0.16474356E-01  0.87031973E-05
    7    1    0.82362527E-02  0.41381451E-05
    8    1   -0.16467947E-01  0.22223327E-05
    1    2    0.23879225E-02  0.33172508E-05
    2    2   -0.45941846E-02  0.91954795E-06
    3    2    0.77173969E-02  0.22164870E-05
    4    2   -0.87863023E-02 -0.11074531E-04
    5    2   -0.16468393E-01  0.40622820E-05
    6    2    0.13874421E-02 -0.19845012E-06
    7    2    0.11491728E-01  0.12255630E-04
    8    2    0.36227899E-02 -0.60258673E-05
    1    3    0.18657388E-02 -0.10667488E-04
    2    3    0.23863882E-02  0.57560632E-05
    3    3   -0.18052941E-01  0.19858844E-05
    4    3    0.23879064E-02  0.93555513E-05
    5    3    0.82261622E-02  0.10470114E-04
    6    3    0.11492780E-01  0.80644320E-05
    7    3   -0.12547382E-01  0.34488986E-05
    8    3    0.11492655E-01 -0.23897446E-04
    1    4    0.23873407E-02  0.39551296E-05
    2    4   -0.87859374E-02 -0.88434161E-05
    3    4    0.77177815E-02 -0.55855657E-05
    4    4   -0.45953719E-02  0.11970830E-04
    5    4   -0.16464755E-01 -0.68024319E-05
    6    4    0.36247576E-02 -0.37486270E-05
    7    4    0.11491852E-01 -0.17547256E-04
    8    4    0.13827991E-02  0.31383451E-04
    1    5    0.10969742E-02 -0.32550214E-05
    2    5   -0.93137959E-04 -0.13748595E-05
    3    5    0.55169277E-02  0.22474721E-05
    4    5   -0.93188122E-04  0.23362834E-05
    5    5   -0.18054653E-01 -0.87047296E-05
    6    5    0.23879333E-02  0.30587574E-05
    7    5    0.18675945E-02 -0.62262842E-05
    8    5    0.23860524E-02  0.18873036E-05
    1    6   -0.92074645E-04 -0.72726897E-06
    2    6    0.10980912E-02  0.87148122E-06
    3    6    0.55164875E-02  0.97639460E-06
    4    6   -0.92861380E-04 -0.21560690E-05
    5    6    0.77189652E-02  0.83417337E-05
    6    6   -0.45947780E-02  0.22356677E-05
    7    6    0.23881129E-02  0.91481019E-06
    8    6   -0.87859064E-02 -0.77452460E-05
    1    7    0.55164683E-02  0.32343037E-05
    2    7    0.55157018E-02  0.77643886E-06
    3    7   -0.16622750E-01 -0.34660449E-05
    4    7    0.55179116E-02 -0.38019565E-05
    5    7    0.62368845E-02 -0.11745277E-04
    6    7    0.77138190E-02  0.23973286E-05
    7    7   -0.18051727E-01  0.13976680E-05
    8    7    0.77184132E-02 -0.25572493E-05
    1    8   -0.92706017E-04  0.85062612E-06
    2    8   -0.91794831E-04 -0.26564272E-05
    3    8    0.55162664E-02 -0.25643774E-05
    4    8    0.10975155E-02  0.25374935E-05
    5    8    0.77204731E-02 -0.44634852E-05
    6    8   -0.87849951E-02 -0.11433355E-04
    7    8    0.23849442E-02  0.60025553E-05
    8    8   -0.45945188E-02  0.13151986E-04

   -2    1    0
    1    1   -0.60694134E-02  0.69510204E-05
    2    1   -0.10443272E-01  0.15337134E-05
    3    1    0.56243051E-01 -0.52043131E-05
    4    1    0.22204294E-01 -0.27168194E-04
    5    1    0.92868202E-01  0.84254457E-05
    6    1   -0.87563180E-01  0.18867046E-04
    7    1    0.18388234E-01 -0.23031123E-04
    8    1   -0.11076730E-01  0.56488946E-05
    1    2   -0.10433755E-01 -0.16446001E-04
    2    2   -0.60741370E-02  0.75997366E-06
    3    2    0.56249775E-01  0.13371175E-04
    4    2    0.22191579E-01  0.20371094E-04
    5    2   -0.87579804E-01  0.22217786E-04
    6    2   -0.20396024E+00  0.92555789E-05
    7    2   -0.87556690E-01  0.13152171E-05
    8    2    0.12321761E+00 -0.19480389E-04
    1    3   -0.17138054E-01  0.10154364E-04
    2    3   -0.17132618E-01  0.22204680E-06
    3    3    0.13537990E-01 -0.35881761E-05
    4    3    0.43474769E-02 -0.92205522E-05
    5    3    0.18365957E-01 -0.12985096E-04
    6    3   -0.87577493E-01  0.60741261E-05
    7    3    0.92871452E-01 -0.56218048E-04
    8    3   -0.11061957E-01  0.36984537E-04
    1    4    0.14857790E-01  0.11436047E-04
    2    4    0.14865263E-01 -0.51260368E-05
    3    4   -0.50848400E-01  0.65117872E-05
    4    4   -0.16441546E-01 -0.13566676E-05
    5    4   -0.11060450E-01 -0.29914215E-05
    6    4    0.12322035E+00 -0.20829836E-04
    7    4   -0.11083364E-01  0.41739109E-04
    8    4   -0.23602750E-01 -0.12857731E-06
    1    5    0.13833680E-02  0.19375976E-04
    2    5    0.11492495E-01 -0.62255481E-05
    3    5   -0.16467281E-01  0.15066438E-04
    4    5    0.36225285E-02  0.30406885E-05
    5    5   -0.60688121E-02  0.40824064E-05
    6    5   -0.10451233E-01 -0.11409682E-04
    7    5   -0.17138078E-01  0.73288583E-05
    8    5    0.14867283E-01  0.13661819E-04
    1    6    0.11493119E-01 -0.61349220E-05
    2    6   -0.12548078E-01 -0.14279254E-05
    3    6    0.82305603E-02  0.11453882E-05
    4    6    0.11492096E-01  0.87846690E-05
    5    6   -0.10433567E-01  0.19710704E-05
    6    6   -0.60646700E-02  0.31283657E-05
    7    6   -0.17130247E-01  0.43574712E-05
    8    6    0.14851278E-01 -0.85984772E-05
    1    7   -0.16469751E-01  0.19958601E-04
    2    7    0.82320112E-02  0.26128011E-05
    3    7    0.14530460E-01 -0.99475668E-07
    4    7   -0.16467281E-01 -0.16602221E-04
    5    7    0.56244033E-01 -0.12693604E-04
    6    7    0.56253300E-01  0.13868756E-04
    7    7    0.13528588E-01 -0.82183125E-05
    8    7   -0.50849371E-01  0.12684204E-04
    1    8    0.36238842E-02 -0.88075607E-06
    2    8    0.11492193E-01  0.12090030E-04
    3    8   -0.16472705E-01 -0.12639579E-04
    4    8    0.13855029E-02 -0.25149088E-04
    5    8    0.22190171E-01 -0.18775606E-04
    6    8    0.22199921E-01  0.13517053E-04
    7    8    0.43473087E-02 -0.12538108E-04
    8    8   -0.16434840E-01 -0.17548892E-05

   -2    1    1
    1    1   -0.60622802E-02 -0.11453060E-04
    2    1    0.56247701E-01 -0.21526600E-04
    3    1   -0.10451099E-01  0.41845884E-04
    4    1    0.22200926E-01 -0.45644368E-04
    5    1    0.92875554E-01  0.18140279E-04
    6    1    0.18377291E-01  0.14378360E-04
    7    1   -0.87563939E-01 -0.18848455E-04
    8    1   -0.11071547E-01  0.95253425E-05
    1    2   -0.17130321E-01 -0.14899426E-05
    2    2    0.13533438E-01 -0.56301426E-05
    3    2   -0.17138628E-01 -0.10127897E-04
    4    2    0.43468942E-02  0.10346640E-05
    5    2    0.18370932E-01  0.16725141E-04
    6    2    0.92868663E-01  0.18286211E-04
    7    2   -0.87578294E-01  0.17240208E-04
    8    2   -0.11059703E-01 -0.16956467E-04
    1    3   -0.10432108E-01 -0.17472840E-04
    2    3    0.56249894E-01 -0.17556153E-05
    3    3   -0.60739305E-02  0.14493200E-04
    4    3    0.22190342E-01  0.17492944E-04
    5    3   -0.87564875E-01  0.16686722E-05
    6    3   -0.87567360E-01 -0.91834583E-05
    7    3   -0.20395672E+00  0.31208367E-04
    8    3    0.12321677E+00 -0.18492734E-04
    1    4    0.14849833E-01  0.18881664E-04
    2    4   -0.50849494E-01  0.20192139E-04
    3    4    0.14871133E-01 -0.23599363E-04
    4    4   -0.16436865E-01  0.94424782E-05
    5    4   -0.11075658E-01 -0.10812827E-05
    6    4   -0.11076010E-01 -0.50988185E-05
    7    4    0.12321832E+00 -0.19787872E-04
    8    4   -0.23603106E-01  0.18614365E-05
    1    5    0.13806976E-02  0.35007978E-04
    2    5   -0.16469647E-01  0.84902343E-05
    3    5    0.11494291E-01 -0.15499331E-04
    4    5    0.36225414E-02 -0.13748928E-05
    5    5   -0.60716829E-02 -0.15480548E-04
    6    5   -0.17132647E-01 -0.72919630E-05
    7    5   -0.10444240E-01 -0.15431420E-04
    8    5    0.14864711E-01  0.21867886E-04
    1    6   -0.16469567E-01  0.11386557E-04
    2    6    0.14537696E-01  0.48962732E-05
    3    6    0.82278379E-02 -0.25874521E-05
    4    6   -0.16464368E-01 -0.18290968E-04
    5    6    0.56248535E-01 -0.20297817E-04
    6    6    0.13534200E-01  0.54882798E-05
    7    6    0.56248344E-01 -0.15480416E-05
    8    6   -0.50852294E-01  0.17399325E-04
    1    7    0.11494470E-01 -0.13858243E-04
    2    7    0.82261035E-02 -0.33696709E-05
    3    7   -0.12545189E-01 -0.36357003E-05
    4    7    0.11494734E-01  0.20520071E-04
    5    7   -0.10437903E-01  0.30109547E-04
    6    7   -0.17137805E-01 -0.98886560E-05
    7    7   -0.60639746E-02  0.68709258E-05
    8    7    0.14855434E-01 -0.14943279E-04
    1    8    0.36239827E-02 -0.48434578E-05
    2    8   -0.16469999E-01 -0.91117811E-05
    3    8    0.11490888E-01  0.18769135E-04
    4    8    0.13802848E-02 -0.34306644E-04
    5    8    0.22190890E-01 -0.26670502E-04
    6    8    0.43472837E-02  0.13928738E-04
    7    8    0.22198541E-01  0.12840955E-04
    8    8   -0.16435405E-01 -0.31915211E-05

   -2    1    2
    1    1   -0.18054326E-01 -0.39244799E-05
    2    1    0.62394488E-02 -0.50024275E-05
    3    1    0.77169233E-02 -0.38854631E-05
    4    1    0.77178662E-02  0.14111854E-04
    5    1    0.14539111E-01  0.18001459E-04
    6    1    0.82291426E-02  0.39463508E-06
    7    1   -0.16470373E-01  0.67889937E-05
    8    1   -0.16467136E-01 -0.15534914E-04
    1    2    0.18686388E-02  0.79140203E-05
    2    2   -0.18051452E-01 -0.69256937E-06
    3    2    0.23859794E-02 -0.19549707E-05
    4    2    0.23847928E-02 -0.17519794E-05
    5    2    0.82243981E-02 -0.11895696E-05
    6    2   -0.12542833E-01 -0.42274461E-06
    7    2    0.11493727E-01 -0.12373957E-04
    8    2    0.11493059E-01  0.17841644E-04
    1    3    0.23855526E-02 -0.36266696E-05
    2    3    0.77182919E-02 -0.23477617E-05
    3    3   -0.45934277E-02  0.55126355E-06
    4    3   -0.87842429E-02 -0.12795612E-05
    5    3   -0.16467100E-01  0.16617617E-04
    6    3    0.11491242E-01 -0.19514236E-04
    7    3    0.13805013E-02  0.20204847E-04
    8    3    0.36238099E-02 -0.12861941E-05
    1    4    0.23888230E-02 -0.59981703E-05
    2    4    0.77162234E-02  0.71119107E-05
    3    4   -0.87855516E-02  0.29721426E-05
    4    4   -0.45956115E-02 -0.41707004E-05
    5    4   -0.16467930E-01 -0.20379550E-04
    6    4    0.11492058E-01  0.21739858E-04
    7    4    0.36237259E-02  0.25244485E-05
    8    4    0.13833711E-02 -0.19463602E-04
    1    5    0.10985738E-02 -0.48396540E-05
    2    5    0.55151735E-02  0.10291539E-04
    3    5   -0.91842514E-04 -0.54776822E-05
    4    5   -0.92841429E-04 -0.53836753E-06
    5    5   -0.18052532E-01 -0.14721170E-05
    6    5    0.18648614E-02  0.75463829E-05
    7    5    0.23877590E-02 -0.26060643E-06
    8    5    0.23896099E-02 -0.94571314E-05
    1    6    0.55169389E-02  0.10234630E-04
    2    6   -0.16623373E-01 -0.34440921E-06
    3    6    0.55169324E-02  0.33342689E-06
    4    6    0.55158044E-02 -0.87526315E-05
    5    6    0.62367298E-02 -0.51696348E-05
    6    6   -0.18053088E-01 -0.99132233E-06
    7    6    0.77193840E-02 -0.62910846E-05
    8    6    0.77184392E-02  0.10334096E-04
    1    7   -0.93263520E-04 -0.48709793E-05
    2    7    0.55187650E-02 -0.12631831E-05
    3    7    0.10973171E-02  0.22826107E-05
    4    7   -0.91493894E-04  0.48607194E-05
    5    7    0.77168619E-02 -0.79617656E-05
    6    7    0.23882036E-02 -0.13235745E-05
    7    7   -0.45962829E-02  0.48373974E-06
    8    7   -0.87874539E-02  0.44473666E-05
    1    8   -0.93039474E-04 -0.73604528E-06
    2    8    0.55156414E-02 -0.65182336E-05
    3    8   -0.92271022E-04  0.47393023E-05
    4    8    0.10972417E-02  0.66257811E-05
    5    8    0.77208857E-02  0.15474651E-04
    6    8    0.23866857E-02  0.68613996E-06
    7    8   -0.87844374E-02 -0.37839742E-05
    8    8   -0.45962034E-02 -0.47818004E-05

   -2    2   -2
    1    1    0.44832262E-02  0.22732011E-17
    2    1   -0.37185694E-02  0.36718416E-05
    3    1   -0.37177249E-02 -0.11487173E-05
    4    1   -0.37188618E-02 -0.73529097E-05
    5    1   -0.16626135E-01 -0.92411421E-05
    6    1    0.55167867E-02  0.83482416E-05
    7    1    0.55161526E-02 -0.63271386E-05
    8    1    0.55191239E-02  0.74125641E-05
    1    2   -0.37185694E-02 -0.36718416E-05
    2    2    0.44822777E-02  0.13660365E-16
    3    2   -0.37167980E-02  0.10198524E-05
    4    2   -0.37170757E-02  0.37881515E-05
    5    2    0.55187279E-02  0.81882399E-05
    6    2    0.10964075E-02  0.27633566E-05
    7    2   -0.92403675E-04  0.23809949E-05
    8    2   -0.93133325E-04 -0.98361152E-05
    1    3   -0.37177249E-02  0.11487173E-05
    2    3   -0.37167980E-02 -0.10198524E-05
    3    3    0.44818566E-02  0.95513995E-17
    4    3   -0.37176214E-02 -0.10860618E-06
    5    3    0.55150299E-02 -0.77629267E-05
    6    3   -0.91797008E-04  0.22014167E-05
    7    3    0.10971431E-02  0.14715151E-05
    8    3   -0.92192670E-04  0.46191714E-05
    1    4   -0.37188618E-02  0.73529097E-05
    2    4   -0.37170757E-02 -0.37881515E-05
    3    4   -0.37176214E-02  0.10860618E-06
    4    4    0.44830534E-02  0.89212881E-17
    5    4    0.55187769E-02  0.84026053E-05
    6    4   -0.92778500E-04 -0.99956195E-05
    7    4   -0.92744179E-04  0.39953321E-05
    8    4    0.10959828E-02  0.28636472E-06
    1    5   -0.16626135E-01  0.92411421E-05
    2    5    0.55187279E-02 -0.81882399E-05
    3    5    0.55150299E-02  0.77629267E-05
    4    5    0.55187769E-02 -0.84026053E-05
    5    5    0.44839215E-02 -0.32482792E-16
    6    5   -0.37169450E-02 -0.34713642E-05
    7    5   -0.37190585E-02 -0.20754530E-06
    8    5   -0.37184438E-02  0.84070664E-05
    1    6    0.55167867E-02 -0.83482416E-05
    2    6    0.10964075E-02 -0.27633566E-05
    3    6   -0.91797008E-04 -0.22014167E-05
    4    6   -0.92778500E-04  0.99956195E-05
    5    6   -0.37169450E-02  0.34713642E-05
    6    6    0.44818514E-02 -0.10083092E-16
    7    6   -0.37170928E-02  0.19348335E-06
    8    6   -0.37185095E-02 -0.46410198E-05
    1    7    0.55161526E-02  0.63271386E-05
    2    7   -0.92403675E-04 -0.23809949E-05
    3    7    0.10971431E-02 -0.14715151E-05
    4    7   -0.92744179E-04 -0.39953321E-05
    5    7   -0.37190585E-02  0.20754530E-06
    6    7   -0.37170928E-02 -0.19348335E-06
    7    7    0.44810830E-02 -0.71150718E-17
    8    7   -0.37168742E-02 -0.32230340E-06
    1    8    0.55191239E-02 -0.74125641E-05
    2    8   -0.93133325E-04  0.98361152E-05
    3    8   -0.92192670E-04 -0.46191714E-05
    4    8    0.10959828E-02 -0.28636472E-06
    5    8   -0.37184438E-02 -0.84070664E-05
    6    8   -0.37185095E-02  0.46410198E-05
    7    8   -0.37168742E-02  0.32230340E-06
    8    8    0.44828053E-02 -0.23350785E-16

   -2    2   -1
    1    1   -0.45945911E-02 -0.17448211E-05
    2    1    0.23864712E-02 -0.46808888E-05
    3    1    0.77177767E-02  0.23888848E-05
    4    1   -0.87859887E-02  0.13892383E-04
    5    1   -0.15325079E-01  0.39399703E-04
    6    1   -0.19314096E-01 -0.68060039E-06
    7    1    0.96296055E-02 -0.27019780E-05
    8    1    0.14531317E-01 -0.81709362E-05
    1    2    0.77171173E-02 -0.68879191E-05
    2    2   -0.18052471E-01 -0.97194054E-06
    3    2    0.62394964E-02 -0.47335132E-05
    4    2    0.77182533E-02  0.96084781E-05
    5    2   -0.19312041E-01  0.18693624E-06
    6    2   -0.15325147E-01 -0.23608183E-05
    7    2    0.96299347E-02  0.48503073E-05
    8    2    0.14530327E-01 -0.47974882E-06
    1    3    0.23871698E-02  0.11089346E-04
    2    3    0.18656045E-02  0.10867551E-06
    3    3   -0.18050762E-01  0.94973378E-06
    4    3    0.23864583E-02 -0.13840085E-04
    5    3    0.96248043E-02 -0.30563190E-05
    6    3    0.96249732E-02  0.92953556E-06
    7    3   -0.12707907E-01 -0.41044344E-05
    8    3    0.11415684E-01  0.73708891E-05
    1    4   -0.87849772E-02 -0.95749957E-05
    2    4    0.23880580E-02  0.50676703E-05
    3    4    0.77177761E-02 -0.15553498E-05
    4    4   -0.45941804E-02 -0.12588973E-05
    5    4    0.14533717E-01 -0.71005839E-05
    6    4    0.14535603E-01  0.60097673E-06
    7    4    0.11410216E-01  0.53251817E-05
    8    4   -0.33738479E-01 -0.83127541E-05
    1    5   -0.15323253E-01 -0.44942962E-06
    2    5    0.96267354E-02 -0.25656120E-05
    3    5   -0.19311907E-01  0.11351003E-05
    4    5    0.14533064E-01 -0.18946630E-06
    5    5   -0.45939905E-02 -0.35729042E-05
    6    5    0.77161776E-02 -0.10417782E-04
    7    5    0.23857820E-02  0.11990896E-04
    8    5   -0.87841011E-02 -0.65695020E-05
    1    6    0.96300017E-02  0.38101443E-05
    2    6   -0.12708567E-01  0.94463294E-05
    3    6    0.96261328E-02 -0.46885227E-05
    4    6    0.11412391E-01 -0.33819180E-05
    5    6    0.23872575E-02 -0.56391877E-05
    6    6   -0.18050752E-01  0.13766318E-05
    7    6    0.18684518E-02 -0.62082192E-06
    8    6    0.23851230E-02  0.58103247E-05
    1    7   -0.19315437E-01 -0.53143587E-05
    2    7    0.96279808E-02 -0.58682803E-06
    3    7   -0.15327676E-01  0.10357078E-05
    4    7    0.14532865E-01  0.52643728E-05
    5    7    0.77174184E-02  0.64396239E-05
    6    7    0.62398435E-02 -0.55038039E-05
    7    7   -0.18054195E-01  0.12201372E-05
    8    7    0.77182166E-02 -0.71545864E-05
    1    8    0.14532318E-01  0.20159710E-05
    2    8    0.11412224E-01 -0.58557179E-05
    3    8    0.14532722E-01  0.52217397E-05
    4    8   -0.33738268E-01 -0.32907229E-05
    5    8   -0.87857993E-02  0.10380591E-04
    6    8    0.77157911E-02  0.11004092E-04
    7    8    0.23858847E-02 -0.12292693E-04
    8    8   -0.45928851E-02 -0.81490663E-06

   -2    2    0
    1    1   -0.51313669E-02 -0.21280080E-16
    2    1    0.43382387E-02  0.21905648E-05
    3    1    0.43390997E-02  0.23599145E-04
    4    1    0.29030084E-01  0.26309953E-04
    5    1   -0.20395335E+00  0.15829307E-04
    6    1   -0.87574011E-01 -0.24094324E-04
    7    1   -0.87574515E-01  0.26967606E-04
    8    1    0.12321996E+00 -0.23826866E-05
    1    2    0.43382387E-02 -0.21905648E-05
    2    2   -0.13864522E-01 -0.31008530E-16
    3    2   -0.68917112E-01  0.38970761E-05
    4    2    0.43365508E-02  0.68026583E-05
    5    2   -0.87564310E-01 -0.54708463E-05
    6    2    0.92873730E-01 -0.17717783E-04
    7    2    0.18371987E-01 -0.17409563E-04
    8    2   -0.11077674E-01  0.18685587E-04
    1    3    0.43390997E-02 -0.23599145E-04
    2    3   -0.68917112E-01 -0.38970761E-05
    3    3   -0.13864915E-01 -0.55587289E-17
    4    3    0.43382770E-02  0.23717508E-04
    5    3   -0.87574739E-01  0.91939993E-05
    6    3    0.18374468E-01 -0.23524522E-04
    7    3    0.92870782E-01 -0.13992179E-05
    8    3   -0.11072138E-01 -0.44364399E-05
    1    4    0.29030084E-01 -0.26309953E-04
    2    4    0.43365508E-02 -0.68026583E-05
    3    4    0.43382770E-02 -0.23717508E-04
    4    4   -0.51327094E-02  0.21284283E-16
    5    4    0.12321878E+00  0.19600761E-05
    6    4   -0.11066051E-01  0.26568009E-04
    7    4   -0.11062467E-01 -0.10747899E-04
    8    4   -0.23605268E-01 -0.19657463E-04
    1    5   -0.20395335E+00 -0.15829307E-04
    2    5   -0.87564310E-01  0.54708463E-05
    3    5   -0.87574739E-01 -0.91939993E-05
    4    5    0.12321878E+00 -0.19600761E-05
    5    5   -0.51299368E-02 -0.64001347E-17
    6    5    0.43346744E-02 -0.70833059E-05
    7    5    0.43348761E-02 -0.24839061E-04
    8    5    0.29036977E-01 -0.18905942E-04
    1    6   -0.87574011E-01  0.24094324E-04
    2    6    0.92873730E-01  0.17717783E-04
    3    6    0.18374468E-01  0.23524522E-04
    4    6   -0.11066051E-01 -0.26568009E-04
    5    6    0.43346744E-02  0.70833059E-05
    6    6   -0.13867744E-01  0.14086867E-16
    7    6   -0.68915876E-01 -0.85349834E-06
    8    6    0.43381916E-02 -0.96183866E-05
    1    7   -0.87574515E-01 -0.26967606E-04
    2    7    0.18371987E-01  0.17409563E-04
    3    7    0.92870782E-01  0.13992179E-05
    4    7   -0.11062467E-01  0.10747899E-04
    5    7    0.43348761E-02  0.24839061E-04
    6    7   -0.68915876E-01  0.85349834E-06
    7    7   -0.13861439E-01 -0.12286573E-16
    8    7    0.43393088E-02 -0.24781410E-04
    1    8    0.12321996E+00  0.23826866E-05
    2    8   -0.11077674E-01 -0.18685587E-04
    3    8   -0.11072138E-01  0.44364399E-05
    4    8   -0.23605268E-01  0.19657463E-04
    5    8    0.29036977E-01  0.18905942E-04
    6    8    0.43381916E-02  0.96183866E-05
    7    8    0.43393088E-02  0.24781410E-04
    8    8   -0.51314780E-02  0.42314513E-17

   -2    2    1
    1    1   -0.45945911E-02  0.17448211E-05
    2    1    0.77171173E-02  0.68879191E-05
    3    1    0.23871698E-02 -0.11089346E-04
    4    1   -0.87849772E-02  0.95749957E-05
    5    1   -0.15323253E-01  0.44942962E-06
    6    1    0.96300017E-02 -0.38101443E-05
    7    1   -0.19315437E-01  0.53143587E-05
    8    1    0.14532318E-01 -0.20159710E-05
    1    2    0.23864712E-02  0.46808888E-05
    2    2   -0.18052471E-01  0.97194054E-06
    3    2    0.18656045E-02 -0.10867551E-06
    4    2    0.23880580E-02 -0.50676703E-05
    5    2    0.96267354E-02  0.25656120E-05
    6    2   -0.12708567E-01 -0.94463294E-05
    7    2    0.96279808E-02  0.58682803E-06
    8    2    0.11412224E-01  0.58557179E-05
    1    3    0.77177767E-02 -0.23888848E-05
    2    3    0.62394964E-02  0.47335132E-05
    3    3   -0.18050762E-01 -0.94973378E-06
    4    3    0.77177761E-02  0.15553498E-05
    5    3   -0.19311907E-01 -0.11351003E-05
    6    3    0.96261328E-02  0.46885227E-05
    7    3   -0.15327676E-01 -0.10357078E-05
    8    3    0.14532722E-01 -0.52217397E-05
    1    4   -0.87859887E-02 -0.13892383E-04
    2    4    0.77182533E-02 -0.96084781E-05
    3    4    0.23864583E-02  0.13840085E-04
    4    4   -0.45941804E-02  0.12588973E-05
    5    4    0.14533064E-01  0.18946630E-06
    6    4    0.11412391E-01  0.33819180E-05
    7    4    0.14532865E-01 -0.52643728E-05
    8    4   -0.33738268E-01  0.32907229E-05
    1    5   -0.15325079E-01 -0.39399703E-04
    2    5   -0.19312041E-01 -0.18693624E-06
    3    5    0.96248043E-02  0.30563190E-05
    4    5    0.14533717E-01  0.71005839E-05
    5    5   -0.45939905E-02  0.35729042E-05
    6    5    0.23872575E-02  0.56391877E-05
    7    5    0.77174184E-02 -0.64396239E-05
    8    5   -0.87857993E-02 -0.10380591E-04
    1    6   -0.19314096E-01  0.68060039E-06
    2    6   -0.15325147E-01  0.23608183E-05
    3    6    0.96249732E-02 -0.92953556E-06
    4    6    0.14535603E-01 -0.60097673E-06
    5    6    0.77161776E-02  0.10417782E-04
    6    6   -0.18050752E-01 -0.13766318E-05
    7    6    0.62398435E-02  0.55038039E-05
    8    6    0.77157911E-02 -0.11004092E-04
    1    7    0.96296055E-02  0.27019780E-05
    2    7    0.96299347E-02 -0.48503073E-05
    3    7   -0.12707907E-01  0.41044344E-05
    4    7    0.11410216E-01 -0.53251817E-05
    5    7    0.23857820E-02 -0.11990896E-04
    6    7    0.18684518E-02  0.62082192E-06
    7    7   -0.18054195E-01 -0.12201372E-05
    8    7    0.23858847E-02  0.12292693E-04
    1    8    0.14531317E-01  0.81709362E-05
    2    8    0.14530327E-01  0.47974882E-06
    3    8    0.11415684E-01 -0.73708891E-05
    4    8   -0.33738479E-01  0.83127541E-05
    5    8   -0.87841011E-02  0.65695020E-05
    6    8    0.23851230E-02 -0.58103247E-05
    7    8    0.77182166E-02  0.71545864E-05
    8    8   -0.45928851E-02  0.81490663E-06

   -2    2    2
    1    1    0.44832262E-02  0.56736458E-17
    2    1   -0.37185694E-02  0.36718416E-05
    3    1   -0.37177249E-02 -0.11487173E-05
    4    1   -0.37188618E-02 -0.73529097E-05
    5    1   -0.16626135E-01 -0.92411421E-05
    6    1    0.55167867E-02  0.83482416E-05
    7    1    0.55161526E-02 -0.63271386E-05
    8    1    0.55191239E-02  0.74125641E-05
    1    2   -0.37185694E-02 -0.36718416E-05
    2    2    0.44822777E-02  0.21426384E-16
    3    2   -0.37167980E-02  0.10198524E-05
    4    2   -0.37170757E-02  0.37881515E-05
    5    2    0.55187279E-02  0.81882399E-05
    6    2    0.10964075E-02  0.27633566E-05
    7    2   -0.92403675E-04  0.23809949E-05
    8    2   -0.93133325E-04 -0.98361152E-05
    1    3   -0.37177249E-02  0.11487173E-05
    2    3   -0.37167980E-02 -0.10198524E-05
    3    3    0.44818566E-02  0.17317363E-16
    4    3   -0.37176214E-02 -0.10860618E-06
    5    3    0.55150299E-02 -0.77629267E-05
    6    3   -0.91797008E-04  0.22014167E-05
    7    3    0.10971431E-02  0.14715151E-05
    8    3   -0.92192670E-04  0.46191714E-05
    1    4   -0.37188618E-02  0.73529097E-05
    2    4   -0.37170757E-02 -0.37881515E-05
    3    4   -0.37176214E-02  0.10860618E-06
    4    4    0.44830534E-02  0.12321852E-16
    5    4    0.55187769E-02  0.84026053E-05
    6    4   -0.92778500E-04 -0.99956195E-05
    7    4   -0.92744179E-04  0.39953321E-05
    8    4    0.10959828E-02  0.28636472E-06
    1    5   -0.16626135E-01  0.92411421E-05
    2    5    0.55187279E-02 -0.81882399E-05
    3    5    0.55150299E-02  0.77629267E-05
    4    5    0.55187769E-02 -0.84026053E-05
    5    5    0.44839215E-02 -0.29082862E-16
    6    5   -0.37169450E-02 -0.34713642E-05
    7    5   -0.37190585E-02 -0.20754530E-06
    8    5   -0.37184438E-02  0.84070664E-05
    1    6    0.55167867E-02 -0.83482416E-05
    2    6    0.10964075E-02 -0.27633566E-05
    3    6   -0.91797008E-04 -0.22014167E-05
    4    6   -0.92778500E-04  0.99956195E-05
    5    6   -0.37169450E-02  0.34713642E-05
    6    6    0.44818514E-02 -0.23166812E-17
    7    6   -0.37170928E-02  0.19348335E-06
    8    6   -0.37185095E-02 -0.46410198E-05
    1    7    0.55161526E-02  0.63271386E-05
    2    7   -0.92403675E-04 -0.23809949E-05
    3    7    0.10971431E-02 -0.14715151E-05
    4    7   -0.92744179E-04 -0.39953321E-05
    5    7   -0.37190585E-02  0.20754530E-06
    6    7   -0.37170928E-02 -0.19348335E-06
    7    7    0.44810830E-02  0.65108929E-18
    8    7   -0.37168742E-02 -0.32230340E-06
    1    8    0.55191239E-02 -0.74125641E-05
    2    8   -0.93133325E-04  0.98361152E-05
    3    8   -0.92192670E-04 -0.46191714E-05
    4    8    0.10959828E-02 -0.28636472E-06
    5    8   -0.37184438E-02 -0.84070664E-05
    6    8   -0.37185095E-02  0.46410198E-05
    7    8   -0.37168742E-02  0.32230340E-06
    8    8    0.44828053E-02 -0.19950672E-16

   -1   -2    1
    1    1   -0.45953815E-02  0.10399361E-04
    2    1   -0.87848246E-02 -0.10823236E-04
    3    1    0.23874105E-02  0.60901141E-05
    4    1    0.77168674E-02 -0.12984457E-05
    5    1   -0.15323701E-01 -0.14377919E-04
    6    1    0.14533906E-01  0.39519367E-05
    7    1   -0.19316269E-01  0.78823834E-05
    8    1    0.96278624E-02  0.27154377E-05
    1    2   -0.87866495E-02 -0.67097822E-05
    2    2   -0.45939883E-02  0.12458285E-05
    3    2    0.23871410E-02 -0.61662380E-06
    4    2    0.77185749E-02  0.89975801E-05
    5    2    0.14533959E-01  0.52208218E-05
    6    2   -0.33741126E-01  0.26667312E-05
    7    2    0.14535600E-01 -0.81096588E-05
    8    2    0.11412433E-01  0.51507630E-05
    1    3    0.77197221E-02 -0.66526524E-05
    2    3    0.77174362E-02 -0.42050727E-05
    3    3   -0.18052996E-01  0.83093656E-05
    4    3    0.62369826E-02 -0.82791832E-05
    5    3   -0.19317297E-01  0.42780815E-05
    6    3    0.14534563E-01 -0.65905351E-05
    7    3   -0.15327649E-01  0.37363938E-05
    8    3    0.96278265E-02 -0.19179619E-05
    1    4    0.23863399E-02  0.35481334E-05
    2    4    0.23882458E-02  0.96603591E-05
    3    4    0.18650762E-02 -0.74793870E-05
    4    4   -0.18052235E-01 -0.12516135E-04
    5    4    0.96283833E-02  0.10739002E-04
    6    4    0.11413261E-01  0.39514744E-05
    7    4    0.96273070E-02 -0.31437510E-05
    8    4   -0.12708655E-01 -0.73312854E-05
    1    5   -0.15324004E-01 -0.33678720E-05
    2    5    0.14534667E-01 -0.37555923E-05
    3    5    0.96269188E-02  0.14667722E-05
    4    5   -0.19314582E-01 -0.96481688E-05
    5    5   -0.45935453E-02  0.12076334E-04
    6    5   -0.87864587E-02 -0.58226014E-05
    7    5    0.77179214E-02 -0.81932255E-05
    8    5    0.23858366E-02  0.46519062E-05
    1    6    0.14533980E-01 -0.23810514E-05
    2    6   -0.33738684E-01  0.59781267E-06
    3    6    0.11413341E-01 -0.34032954E-05
    4    6    0.14532635E-01  0.32373921E-05
    5    6   -0.87857782E-02 -0.13021338E-04
    6    6   -0.45936288E-02  0.88206525E-06
    7    6    0.77156003E-02 -0.15533111E-05
    8    6    0.23879995E-02  0.85722785E-05
    1    7    0.96268418E-02 -0.23913256E-05
    2    7    0.11410308E-01 -0.19289822E-05
    3    7   -0.12706704E-01  0.18891765E-05
    4    7    0.96285233E-02  0.43123828E-05
    5    7    0.23867009E-02  0.46756218E-05
    6    7    0.23859337E-02 -0.59320910E-06
    7    7   -0.18050767E-01  0.78927807E-05
    8    7    0.18663931E-02 -0.82618022E-05
    1    8   -0.19313705E-01 -0.70086795E-05
    2    8    0.14535850E-01  0.22127273E-05
    3    8    0.96256017E-02  0.67543087E-05
    4    8   -0.15323727E-01  0.64208124E-05
    5    8    0.77188743E-02  0.31666686E-07
    6    8    0.77187412E-02  0.99977682E-05
    7    8    0.62365139E-02 -0.76727025E-05
    8    8   -0.18052724E-01 -0.15192723E-04

   -1   -2    2
    1    1   -0.45941179E-02 -0.65813668E-05
    2    1    0.23873529E-02 -0.14110917E-05
    3    1   -0.87871084E-02 -0.23613634E-05
    4    1    0.77190361E-02  0.18977741E-04
    5    1   -0.15327291E-01  0.69957701E-05
    6    1   -0.19315143E-01 -0.30359095E-04
    7    1    0.14533657E-01  0.11284596E-04
    8    1    0.96279216E-02 -0.80752832E-05
    1    2    0.77167373E-02  0.63620274E-05
    2    2   -0.18051879E-01 -0.52698454E-06
    3    2    0.77189719E-02 -0.36703519E-06
    4    2    0.62372566E-02 -0.12908849E-04
    5    2   -0.19314591E-01 -0.27500469E-04
    6    2   -0.15322171E-01 -0.47126169E-05
    7    2    0.14531343E-01  0.91708520E-05
    8    2    0.96290174E-02  0.15291551E-04
    1    3   -0.87864778E-02  0.75709030E-05
    2    3    0.23877648E-02  0.77563475E-06
    3    3   -0.45959355E-02 -0.18833993E-05
    4    3    0.77183925E-02 -0.10701577E-04
    5    3    0.14536061E-01  0.78824288E-05
    6    3    0.14534055E-01  0.67730252E-05
    7    3   -0.33740610E-01  0.14269733E-04
    8    3    0.11412638E-01 -0.10059953E-04
    1    4    0.23871542E-02 -0.64479351E-05
    2    4    0.18637880E-02  0.50045307E-05
    3    4    0.23888206E-02 -0.14070109E-05
    4    4   -0.18052524E-01 -0.22103294E-05
    5    4    0.96239526E-02 -0.10892024E-04
    6    4    0.96259115E-02  0.21984919E-04
    7    4    0.11413963E-01 -0.12832037E-04
    8    4   -0.12707009E-01 -0.13551175E-06
    1    5   -0.15326530E-01 -0.64213100E-05
    2    5    0.96259466E-02  0.13360004E-04
    3    5    0.14534868E-01 -0.20429233E-05
    4    5   -0.19315943E-01 -0.11764269E-05
    5    5   -0.45936563E-02 -0.73857461E-05
    6    5    0.77179198E-02  0.11567428E-04
    7    5   -0.87871391E-02  0.28930842E-05
    8    5    0.23875234E-02 -0.70426735E-05
    1    6    0.96303154E-02  0.79289487E-05
    2    6   -0.12707982E-01  0.13792433E-05
    3    6    0.11412740E-01 -0.67197074E-06
    4    6    0.96285239E-02 -0.79715315E-05
    5    6    0.23865153E-02  0.37758297E-06
    6    6   -0.18052109E-01 -0.23059183E-05
    7    6    0.23866274E-02  0.71713090E-06
    8    6    0.18668103E-02  0.52228463E-05
    1    7    0.14534131E-01 -0.45194016E-05
    2    7    0.11414295E-01  0.19611485E-05
    3    7   -0.33741001E-01 -0.31351799E-05
    4    7    0.14531632E-01  0.45337710E-05
    5    7   -0.87847594E-02  0.21711708E-05
    6    7    0.77176935E-02 -0.47399835E-05
    7    7   -0.45956821E-02 -0.14164860E-05
    8    7    0.23873354E-02 -0.17726962E-05
    1    8   -0.19317475E-01  0.20124427E-05
    2    8    0.96279351E-02 -0.14340564E-04
    3    8    0.14531823E-01  0.65046875E-05
    4    8   -0.15320311E-01  0.11418790E-04
    5    8    0.77192909E-02  0.13477020E-04
    6    8    0.62366372E-02 -0.12430613E-04
    7    8    0.77173686E-02 -0.55819722E-05
    8    8   -0.18053542E-01 -0.91205944E-06

   -1   -1   -1
    1    1    0.64955647E-01 -0.19485319E-04
    2    1   -0.12066558E-01 -0.96642919E-05
    3    1   -0.12062375E-01  0.24359373E-04
    4    1   -0.12062210E-01  0.12889122E-04
    5    1   -0.42256608E-01  0.51833580E-04
    6    1    0.94889508E-02 -0.31667438E-05
    7    1    0.94961903E-02 -0.22590709E-04
    8    1    0.94942968E-02 -0.10349461E-04
    1    2   -0.12062256E-01 -0.13048707E-04
    2    2    0.64955176E-01  0.10550768E-05
    3    2   -0.12064402E-01  0.39956291E-05
    4    2   -0.12065000E-01  0.13130591E-04
    5    2    0.94942886E-02 -0.39513078E-05
    6    2    0.19081174E-01 -0.78279778E-06
    7    2   -0.22225771E-01  0.99886756E-05
    8    2   -0.22230816E-01 -0.13495684E-04
    1    3   -0.12070412E-01  0.24015178E-04
    2    3   -0.12061795E-01 -0.61805351E-06
    3    3    0.64956498E-01 -0.19187577E-05
    4    3   -0.12062117E-01 -0.23320920E-04
    5    3    0.95017321E-02 -0.16515449E-04
    6    3   -0.22230309E-01  0.48649469E-05
    7    3    0.19076357E-01 -0.59553577E-05
    8    3   -0.22230305E-01  0.11033241E-04
    1    4   -0.12062532E-01  0.60797508E-05
    2    4   -0.12065198E-01  0.75760369E-06
    3    4   -0.12064872E-01 -0.22583676E-04
    4    4    0.64954403E-01  0.66618761E-05
    5    4    0.94950658E-02 -0.14397985E-04
    6    4   -0.22227057E-01 -0.10891640E-04
    7    4   -0.22234126E-01  0.16137611E-04
    8    4    0.19082586E-01  0.25026229E-05
    1    5    0.32983489E-01  0.12184475E-04
    2    5    0.90584738E-02  0.69188977E-07
    3    5    0.90608172E-02 -0.17335397E-04
    4    5    0.90581226E-02  0.32758966E-05
    5    5    0.64955697E-01 -0.19008717E-04
    6    5   -0.12058991E-01 -0.15546931E-04
    7    5   -0.12067405E-01  0.33039339E-04
    8    5   -0.12064033E-01 -0.13506220E-05
    1    6    0.90588414E-02 -0.27723419E-05
    2    6   -0.25542594E-01  0.93844879E-05
    3    6   -0.15871383E-01 -0.63074743E-05
    4    6   -0.15877628E-01  0.50493650E-05
    5    6   -0.12067125E-01 -0.12406986E-04
    6    6    0.64952453E-01  0.18646009E-05
    7    6   -0.12058370E-01 -0.29221494E-05
    8    6   -0.12066155E-01  0.49530701E-05
    1    7    0.90687057E-02 -0.98395628E-05
    2    7   -0.15876943E-01 -0.70457964E-05
    3    7   -0.25541615E-01  0.14500121E-04
    4    7   -0.15871056E-01  0.12894480E-04
    5    7   -0.12061539E-01  0.29517916E-04
    6    7   -0.12069563E-01  0.32620542E-05
    7    7    0.64955883E-01 -0.42302661E-05
    8    7   -0.12062586E-01 -0.22010904E-04
    1    8    0.90578715E-02 -0.23642102E-05
    2    8   -0.15872365E-01  0.66351454E-05
    3    8   -0.15878367E-01  0.13140258E-04
    4    8   -0.25541425E-01 -0.16736792E-04
    5    8   -0.12066308E-01  0.95529031E-05
    6    8   -0.12061906E-01  0.17039832E-04
    7    8   -0.12065295E-01 -0.27746273E-04
    8    8    0.64955523E-01  0.76884555E-05

   -1   -1    0
    1    1   -0.60647913E-02  0.25539154E-04
    2    1    0.14856953E-01 -0.75436598E-05
    3    1   -0.17135877E-01 -0.10032960E-04
    4    1   -0.10442063E-01  0.15056441E-04
    5    1    0.13799287E-02 -0.18918896E-04
    6    1    0.36233275E-02 -0.80387260E-05
    7    1   -0.16468795E-01  0.28664454E-04
    8    1    0.11495192E-01  0.15549464E-04
    1    2    0.22200715E-01  0.10656128E-04
    2    2   -0.16441662E-01 -0.12562900E-05
    3    2    0.43490349E-02 -0.28099448E-05
    4    2    0.22194525E-01 -0.12557566E-04
    5    2    0.36221785E-02 -0.67987211E-05
    6    2    0.13860292E-02 -0.53309906E-05
    7    2   -0.16469860E-01  0.59079389E-06
    8    2    0.11493486E-01  0.17595205E-04
    1    3    0.56244121E-01 -0.29919772E-04
    2    3   -0.50848950E-01  0.39034055E-05
    3    3    0.13539342E-01  0.18465158E-05
    4    3    0.56250156E-01  0.23815075E-04
    5    3   -0.16463026E-01  0.29375779E-04
    6    3   -0.16474520E-01  0.32773020E-06
    7    3    0.14536349E-01 -0.75061092E-05
    8    3    0.82276621E-02 -0.18646367E-04
    1    4   -0.10449179E-01 -0.18587072E-04
    2    4    0.14864890E-01  0.10048175E-04
    3    4   -0.17132903E-01  0.77781078E-05
    4    4   -0.60680813E-02 -0.11967858E-04
    5    4    0.11493539E-01  0.13639096E-04
    6    4    0.11491676E-01  0.16625482E-04
    7    4    0.82313915E-02 -0.19008781E-04
    8    4   -0.12548906E-01 -0.23510498E-04
    1    5    0.92869223E-01 -0.11908408E-04
    2    5   -0.11065401E-01  0.67491222E-05
    3    5    0.18374256E-01 -0.11411463E-04
    4    5   -0.87575793E-01  0.18420412E-04
    5    5   -0.60664657E-02  0.29105756E-04
    6    5    0.22190890E-01  0.11594068E-04
    7    5    0.56248294E-01 -0.24144168E-04
    8    5   -0.10439483E-01 -0.26227906E-04
    1    6   -0.11075243E-01  0.20108914E-05
    2    6   -0.23603288E-01 -0.12684824E-05
    3    6   -0.11061592E-01  0.35612635E-05
    4    6    0.12321788E+00 -0.22091217E-04
    5    6    0.14864794E-01 -0.56430503E-05
    6    6   -0.16434097E-01 -0.49587483E-05
    7    6   -0.50856548E-01 -0.17825109E-05
    8    6    0.14855337E-01  0.12441538E-04
    1    7    0.18383836E-01 -0.52989764E-05
    2    7   -0.11074302E-01  0.26394925E-05
    3    7    0.92865243E-01 -0.43881242E-05
    4    7   -0.87568042E-01  0.14232399E-04
    5    7   -0.17138686E-01 -0.12353826E-04
    6    7    0.43455587E-02  0.20414219E-05
    7    7    0.13536608E-01  0.10030772E-04
    8    7   -0.17131261E-01  0.77994380E-05
    1    8   -0.87560658E-01  0.15446728E-04
    2    8    0.12321763E+00 -0.22802329E-04
    3    8   -0.87583055E-01  0.22171929E-04
    4    8   -0.20395201E+00  0.27794296E-04
    5    8   -0.10448577E-01  0.11328600E-04
    6    8    0.22198503E-01 -0.88706791E-05
    7    8    0.56250542E-01  0.23261741E-04
    8    8   -0.60673980E-02 -0.14041889E-04

   -1   -1    1
    1    1    0.11408706E-01 -0.23238332E-04
    2    1   -0.72080734E-02  0.99061069E-05
    3    1   -0.72069820E-02 -0.46213726E-05
    4    1   -0.17874347E-01 -0.10899391E-05
    5    1   -0.33739921E-01 -0.65556933E-06
    6    1    0.14532795E-01 -0.65387818E-05
    7    1    0.14532251E-01 -0.92657300E-05
    8    1    0.11412989E-01  0.32909072E-05
    1    2    0.21782870E-01  0.18405291E-04
    2    2    0.11411719E-01  0.28790176E-05
    3    2   -0.17867277E-01 -0.61763103E-05
    4    2    0.21781749E-01 -0.18339758E-04
    5    2    0.14535385E-01 -0.62335715E-05
    6    2   -0.15327407E-01  0.12878710E-04
    7    2   -0.19312918E-01  0.13634624E-04
    8    2    0.96246692E-02 -0.92360731E-05
    1    3    0.21777713E-01  0.25743743E-04
    2    3   -0.17872710E-01  0.57673417E-05
    3    3    0.11414072E-01 -0.12257281E-04
    4    3    0.21782271E-01 -0.19011735E-04
    5    3    0.14532434E-01 -0.11351789E-04
    6    3   -0.19314542E-01  0.11570976E-04
    7    3   -0.15321346E-01  0.16969180E-04
    8    3    0.96261479E-02  0.57113446E-06
    1    4   -0.17869179E-01 -0.13429306E-05
    2    4   -0.72068839E-02 -0.14745209E-04
    3    4   -0.72100555E-02  0.98959744E-05
    4    4    0.11409257E-01  0.28214364E-04
    5    4    0.11412239E-01  0.41480513E-05
    6    4    0.96293247E-02 -0.10935827E-04
    7    4    0.96284414E-02 -0.23993587E-05
    8    4   -0.12705982E-01  0.20499777E-05
    1    5   -0.15901768E+00  0.93528526E-06
    2    5    0.19150093E-02  0.42916132E-05
    3    5    0.19287099E-02  0.46700335E-05
    4    5    0.25645239E-01  0.15628620E-05
    5    5    0.11411592E-01 -0.21417996E-04
    6    5    0.21788419E-01  0.10585270E-04
    7    5    0.21780477E-01  0.34388854E-04
    8    5   -0.17870417E-01 -0.11556079E-04
    1    6    0.19214018E-02 -0.54654044E-05
    2    6    0.48356217E-02 -0.11468741E-04
    3    6    0.80818468E-02  0.22823971E-04
    4    6   -0.71039507E-02  0.16198822E-05
    5    6   -0.72044138E-02  0.12638872E-04
    6    6    0.11405398E-01  0.26806309E-05
    7    6   -0.17873752E-01  0.19557569E-05
    8    6   -0.72096919E-02 -0.13723971E-04
    1    7    0.19156703E-02  0.65985864E-05
    2    7    0.80817992E-02  0.11628638E-04
    3    7    0.48232988E-02  0.36608678E-05
    4    7   -0.70944316E-02 -0.61328435E-04
    5    7   -0.72084247E-02 -0.15985389E-04
    6    7   -0.17872597E-01  0.56953072E-05
    7    7    0.11409254E-01 -0.58857808E-06
    8    7   -0.72079667E-02  0.14621024E-04
    1    8    0.25633679E-01  0.78932216E-05
    2    8   -0.71092369E-02 -0.29443649E-05
    3    8   -0.70989513E-02 -0.37071900E-04
    4    8   -0.12321583E-01  0.10924050E-03
    5    8   -0.17873647E-01  0.43865298E-05
    6    8    0.21784668E-01 -0.18615711E-04
    7    8    0.21777609E-01 -0.29366023E-04
    8    8    0.11415154E-01  0.23548054E-04

   -1   -1    2
    1    1   -0.60712606E-02  0.10273298E-04
    2    1   -0.17133954E-01  0.13099076E-04
    3    1    0.14863082E-01 -0.73893369E-05
    4    1   -0.10440236E-01 -0.37378757E-04
    5    1    0.13849581E-02 -0.10109964E-04
    6    1   -0.16473559E-01  0.37378862E-04
    7    1    0.36241591E-02  0.21289967E-05
    8    1    0.11491724E-01 -0.47851128E-05
    1    2    0.56254065E-01 -0.47306702E-05
    2    2    0.13530542E-01 -0.65241330E-05
    3    2   -0.50852911E-01 -0.14687475E-05
    4    2    0.56249615E-01  0.62996533E-05
    5    2   -0.16467472E-01  0.32628429E-04
    6    2    0.14536447E-01 -0.53443129E-05
    7    2   -0.16472475E-01 -0.15377215E-04
    8    2    0.82323443E-02 -0.38011118E-05
    1    3    0.22203734E-01 -0.40372598E-04
    2    3    0.43471113E-02 -0.62808392E-05
    3    3   -0.16442897E-01  0.10755487E-04
    4    3    0.22197831E-01  0.26920001E-04
    5    3    0.36222581E-02  0.92716370E-05
    6    3   -0.16465873E-01 -0.26554094E-04
    7    3    0.13832687E-02 -0.10060021E-04
    8    3    0.11493913E-01  0.10818450E-04
    1    4   -0.10448470E-01  0.40708497E-04
    2    4   -0.17133571E-01 -0.67913277E-05
    3    4    0.14869229E-01 -0.44101642E-05
    4    4   -0.60732115E-02 -0.19579675E-05
    5    4    0.11490832E-01 -0.70903765E-05
    6    4    0.82313442E-02 -0.24443924E-05
    7    4    0.11495499E-01  0.12721396E-04
    8    4   -0.12549424E-01  0.85602997E-05
    1    5    0.92867161E-01  0.39818535E-04
    2    5    0.18369489E-01 -0.44217850E-05
    3    5   -0.11062154E-01 -0.62813797E-05
    4    5   -0.87581709E-01  0.28575081E-04
    5    5   -0.60736923E-02  0.30609500E-06
    6    5    0.56253290E-01 -0.67632312E-05
    7    5    0.22197097E-01 -0.18973601E-04
    8    5   -0.10438683E-01  0.34017028E-04
    1    6    0.18378585E-01 -0.95629007E-05
    2    6    0.92874677E-01 -0.12784524E-05
    3    6   -0.11081083E-01 -0.37767786E-05
    4    6   -0.87556192E-01  0.15956167E-04
    5    6   -0.17132051E-01  0.56299447E-05
    6    6    0.13525041E-01  0.21599212E-05
    7    6    0.43399038E-02  0.53283657E-06
    8    6   -0.17131763E-01 -0.28834513E-05
    1    7   -0.11069555E-01  0.90392714E-05
    2    7   -0.11069196E-01 -0.15113808E-04
    3    7   -0.23601609E-01  0.14910913E-04
    4    7    0.12321756E+00 -0.32785127E-04
    5    7    0.14863814E-01  0.10093477E-05
    6    7   -0.50850061E-01 -0.66539050E-06
    7    7   -0.16433835E-01 -0.23135764E-06
    8    7    0.14854489E-01 -0.23018548E-05
    1    8   -0.87572338E-01  0.78401687E-05
    2    8   -0.87567291E-01  0.39641254E-04
    3    8    0.12321774E+00 -0.32639212E-04
    4    8   -0.20395605E+00  0.40736717E-04
    5    8   -0.10445798E-01 -0.36299318E-04
    6    8    0.56246721E-01  0.84486193E-05
    7    8    0.22201121E-01  0.18935970E-04
    8    8   -0.60671356E-02 -0.51194401E-05

   -1   -1    3
    1    1    0.64955647E-01 -0.19485319E-04
    2    1   -0.12066558E-01 -0.96642919E-05
    3    1   -0.12062375E-01  0.24359373E-04
    4    1   -0.12062210E-01  0.12889122E-04
    5    1   -0.42256608E-01  0.51833580E-04
    6    1    0.94889508E-02 -0.31667438E-05
    7    1    0.94961903E-02 -0.22590709E-04
    8    1    0.94942968E-02 -0.10349461E-04
    1    2   -0.12062256E-01 -0.13048707E-04
    2    2    0.64955176E-01  0.10550768E-05
    3    2   -0.12064402E-01  0.39956291E-05
    4    2   -0.12065000E-01  0.13130591E-04
    5    2    0.94942886E-02 -0.39513078E-05
    6    2    0.19081174E-01 -0.78279778E-06
    7    2   -0.22225771E-01  0.99886756E-05
    8    2   -0.22230816E-01 -0.13495684E-04
    1    3   -0.12070412E-01  0.24015178E-04
    2    3   -0.12061795E-01 -0.61805351E-06
    3    3    0.64956498E-01 -0.19187577E-05
    4    3   -0.12062117E-01 -0.23320920E-04
    5    3    0.95017321E-02 -0.16515449E-04
    6    3   -0.22230309E-01  0.48649469E-05
    7    3    0.19076357E-01 -0.59553577E-05
    8    3   -0.22230305E-01  0.11033241E-04
    1    4   -0.12062532E-01  0.60797508E-05
    2    4   -0.12065198E-01  0.75760369E-06
    3    4   -0.12064872E-01 -0.22583676E-04
    4    4    0.64954403E-01  0.66618761E-05
    5    4    0.94950658E-02 -0.14397985E-04
    6    4   -0.22227057E-01 -0.10891640E-04
    7    4   -0.22234126E-01  0.16137611E-04
    8    4    0.19082586E-01  0.25026229E-05
    1    5    0.32983489E-01  0.12184475E-04
    2    5    0.90584738E-02  0.69188977E-07
    3    5    0.90608172E-02 -0.17335397E-04
    4    5    0.90581226E-02  0.32758966E-05
    5    5    0.64955697E-01 -0.19008717E-04
    6    5   -0.12058991E-01 -0.15546931E-04
    7    5   -0.12067405E-01  0.33039339E-04
    8    5   -0.12064033E-01 -0.13506220E-05
    1    6    0.90588414E-02 -0.27723419E-05
    2    6   -0.25542594E-01  0.93844879E-05
    3    6   -0.15871383E-01 -0.63074743E-05
    4    6   -0.15877628E-01  0.50493650E-05
    5    6   -0.12067125E-01 -0.12406986E-04
    6    6    0.64952453E-01  0.18646009E-05
    7    6   -0.12058370E-01 -0.29221494E-05
    8    6   -0.12066155E-01  0.49530701E-05
    1    7    0.90687057E-02 -0.98395628E-05
    2    7   -0.15876943E-01 -0.70457964E-05
    3    7   -0.25541615E-01  0.14500121E-04
    4    7   -0.15871056E-01  0.12894480E-04
    5    7   -0.12061539E-01  0.29517916E-04
    6    7   -0.12069563E-01  0.32620542E-05
    7    7    0.64955883E-01 -0.42302661E-05
    8    7   -0.12062586E-01 -0.22010904E-04
    1    8    0.90578715E-02 -0.23642102E-05
    2    8   -0.15872365E-01  0.66351454E-05
    3    8   -0.15878367E-01  0.13140258E-04
    4    8   -0.25541425E-01 -0.16736792E-04
    5    8   -0.12066308E-01  0.95529031E-05
    6    8   -0.12061906E-01  0.17039832E-04
    7    8   -0.12065295E-01 -0.27746273E-04
    8    8    0.64955523E-01  0.76884555E-05

   -1    0   -1
    1    1    0.13530278E-01  0.62705504E-05
    2    1   -0.50853171E-01  0.24261185E-04
    3    1    0.56255638E-01 -0.35889760E-04
    4    1    0.56244008E-01 -0.25106772E-04
    5    1    0.19083233E-01 -0.47285513E-04
    6    1    0.94976645E-02 -0.15499039E-05
    7    1   -0.22232769E-01  0.32423563E-04
    8    1   -0.22231408E-01  0.32426429E-05
    1    2    0.43422838E-02 -0.65674205E-05
    2    2   -0.16437308E-01  0.65130394E-05
    3    2    0.22196725E-01  0.66137352E-05
    4    2    0.22203772E-01 -0.14618434E-04
    5    2    0.94980520E-02  0.18953085E-05
    6    2   -0.42258410E-01  0.29271623E-05
    7    2    0.94906380E-02 -0.12113151E-05
    8    2    0.94956483E-02  0.18586767E-05
    1    3   -0.17131423E-01 -0.22887239E-04
    2    3    0.14863229E-01  0.33725930E-05
    3    3   -0.60697598E-02 -0.21310383E-05
    4    3   -0.10445531E-01  0.25599510E-04
    5    3   -0.22232578E-01  0.25096978E-04
    6    3    0.94906285E-02  0.53406451E-05
    7    3    0.19086621E-01 -0.12240911E-05
    8    3   -0.22230194E-01 -0.26367052E-04
    1    4   -0.17136417E-01 -0.15282627E-05
    2    4    0.14860582E-01 -0.11059712E-04
    3    4   -0.10444252E-01  0.17443572E-04
    4    4   -0.60670200E-02  0.54149594E-05
    5    4   -0.22233755E-01  0.58606636E-05
    6    4    0.94951711E-02 -0.13249199E-06
    7    4   -0.22225936E-01 -0.34805901E-04
    8    4    0.19082154E-01  0.32447636E-04
    1    5   -0.12708858E-01 -0.62158787E-05
    2    5    0.11413546E-01  0.93821213E-06
    3    5    0.96276951E-02  0.68443680E-05
    4    5    0.96283974E-02  0.95571649E-05
    5    5    0.13532869E-01  0.80147527E-05
    6    5    0.43437805E-02 -0.45133046E-06
    7    5   -0.17128430E-01 -0.33521771E-04
    8    5   -0.17136318E-01  0.56933096E-05
    1    6    0.11412087E-01  0.37708964E-05
    2    6   -0.33740679E-01  0.16199839E-05
    3    6    0.14534827E-01 -0.94391502E-05
    4    6    0.14532988E-01  0.35979745E-05
    5    6   -0.50845027E-01  0.25340574E-04
    6    6   -0.16437826E-01  0.11422000E-05
    7    6    0.14855052E-01  0.89919542E-05
    8    6    0.14864063E-01 -0.11168385E-04
    1    7    0.96299038E-02  0.73093706E-06
    2    7    0.14533894E-01 -0.56216136E-05
    3    7   -0.15324262E-01  0.68285038E-05
    4    7   -0.19317593E-01 -0.37521147E-05
    5    7    0.56247615E-01 -0.30194771E-04
    6    7    0.22201373E-01  0.96994945E-06
    7    7   -0.60704985E-02 -0.25480541E-05
    8    7   -0.10445819E-01  0.97620146E-05
    1    8    0.96291858E-02  0.13390155E-04
    2    8    0.14532400E-01  0.33479418E-05
    3    8   -0.19317768E-01 -0.12360344E-04
    4    8   -0.15323998E-01 -0.12026657E-04
    5    8    0.56246068E-01 -0.30887042E-04
    6    8    0.22197020E-01 -0.65605088E-05
    7    8   -0.10438056E-01  0.31057958E-04
    8    8   -0.60685960E-02  0.26072801E-05

   -1    0    0
    1    1    0.10778901E+00 -0.42601024E-04
    2    1   -0.86767006E-01 -0.20023643E-05
    3    1   -0.78867753E-01 -0.23019750E-04
    4    1    0.27822198E+00 -0.23054622E-04
    5    1    0.48390064E-02  0.19249116E-04
    6    1   -0.70991109E-02  0.16920434E-04
    7    1    0.19142924E-02 -0.33116775E-04
    8    1    0.80739911E-02 -0.11788575E-04
    1    2    0.27821033E+00 -0.26245549E-04
    2    2   -0.84972143E-01 -0.72451771E-05
    3    2    0.27819836E+00  0.24615008E-04
    4    2   -0.42704819E+00 -0.42786922E-05
    5    2   -0.71100036E-02  0.21038627E-04
    6    2   -0.12325323E-01  0.16582634E-04
    7    2    0.25644234E-01  0.72468417E-06
    8    2   -0.70994335E-02 -0.23875316E-04
    1    3   -0.78874266E-01  0.40883085E-04
    2    3   -0.86774808E-01  0.91853342E-05
    3    3    0.10782575E+00 -0.30070523E-05
    4    3    0.27818805E+00 -0.78132082E-04
    5    3    0.19225997E-02 -0.37640148E-04
    6    3    0.25652938E-01 -0.83897296E-05
    7    3   -0.15902323E+00 -0.35129936E-05
    8    3    0.19237380E-02  0.44083323E-04
    1    4   -0.86758065E-01  0.26381282E-04
    2    4    0.10865464E+00 -0.35033326E-05
    3    4   -0.86785083E-01  0.97573489E-06
    4    4   -0.84980494E-01  0.25405098E-04
    5    4    0.80764714E-02 -0.11456962E-04
    6    4   -0.71021139E-02 -0.26111089E-04
    7    4    0.19268819E-02  0.28051335E-04
    8    4    0.48314111E-02  0.10939105E-04
    1    5    0.48367170E-02  0.19286149E-04
    2    5    0.80821853E-02 -0.26757964E-04
    3    5    0.19218617E-02  0.20636952E-04
    4    5   -0.71102103E-02  0.51414898E-05
    5    5    0.10784562E+00 -0.54866356E-04
    6    5    0.27819309E+00 -0.39902127E-04
    7    5   -0.78882669E-01  0.29521962E-04
    8    5   -0.86775989E-01  0.34535992E-04
    1    6    0.80788393E-02 -0.29426487E-04
    2    6    0.48238579E-02  0.11503708E-04
    3    6    0.19160388E-02  0.78726250E-05
    4    6   -0.70951509E-02  0.23215971E-04
    5    6   -0.86784337E-01 -0.19222527E-05
    6    6   -0.84961322E-01 -0.10213242E-04
    7    6   -0.86755747E-01  0.21705340E-04
    8    6    0.10864595E+00 -0.54525985E-05
    1    7    0.19117451E-02  0.13199965E-04
    2    7    0.19312823E-02  0.18883167E-04
    3    7   -0.15901943E+00 -0.34258283E-04
    4    7    0.25637023E-01 -0.23526626E-04
    5    7   -0.78857855E-01  0.80436938E-05
    6    7    0.27822542E+00  0.36867510E-04
    7    7    0.10776524E+00  0.28310495E-05
    8    7   -0.86767328E-01 -0.24551859E-04
    1    8   -0.71076673E-02  0.17784019E-04
    2    8   -0.70978194E-02  0.15012211E-04
    3    8    0.25649865E-01 -0.26455152E-04
    4    8   -0.12325020E-01 -0.57728576E-04
    5    8    0.27818341E+00 -0.20202490E-04
    6    8   -0.42706163E+00  0.29474161E-06
    7    8    0.27822417E+00 -0.86288461E-04
    8    8   -0.84965337E-01  0.27936926E-04

   -1    0    1
    1    1    0.10779599E+00 -0.89220575E-05
    2    1   -0.78889292E-01 -0.64908660E-04
    3    1   -0.86759852E-01  0.24503842E-04
    4    1    0.27821111E+00 -0.60271814E-04
    5    1    0.48269119E-02 -0.17018679E-04
    6    1    0.19230678E-02  0.77095381E-05
    7    1   -0.70939577E-02  0.15312966E-04
    8    1    0.80799664E-02 -0.15171355E-06
    1    2   -0.78861754E-01 -0.94105815E-04
    2    2    0.10782871E+00 -0.59128315E-04
    3    2   -0.86780862E-01  0.40293689E-04
    4    2    0.27819902E+00 -0.61142981E-04
    5    2    0.19248940E-02  0.17331713E-04
    6    2   -0.15902911E+00  0.29586339E-05
    7    2    0.25638996E-01  0.13017513E-05
    8    2    0.19148760E-02 -0.83305279E-05
    1    3    0.27821720E+00 -0.60907651E-04
    2    3    0.27819270E+00 -0.48361909E-04
    3    3   -0.84981738E-01  0.72666991E-04
    4    3   -0.42704428E+00 -0.11356131E-03
    5    3   -0.71069939E-02 -0.72561789E-05
    6    3    0.25629055E-01  0.23078173E-04
    7    3   -0.12317732E-01  0.10485042E-04
    8    3   -0.71027480E-02  0.12138631E-04
    1    4   -0.86777888E-01  0.74203607E-04
    2    4   -0.86765730E-01  0.61331297E-04
    3    4    0.10866025E+00 -0.62124006E-04
    4    4   -0.84992073E-01  0.79885419E-04
    5    4    0.80824467E-02  0.10760914E-04
    6    4    0.19279352E-02 -0.19918343E-04
    7    4   -0.70997889E-02 -0.21573019E-04
    8    4    0.48285042E-02 -0.57721500E-06
    1    5    0.48259851E-02  0.25478296E-04
    2    5    0.19242335E-02  0.25799902E-04
    3    5    0.80831824E-02 -0.18399141E-04
    4    5   -0.71023544E-02  0.12147951E-04
    5    5    0.10780935E+00 -0.55996463E-04
    6    5   -0.78862994E-01 -0.84566386E-04
    7    5    0.27819729E+00 -0.82327088E-04
    8    5   -0.86776210E-01  0.10409367E-03
    1    6    0.19190368E-02  0.23418142E-04
    2    6   -0.15902391E+00  0.55282067E-05
    3    6    0.19221122E-02 -0.27021573E-04
    4    6    0.25644788E-01 -0.15482523E-04
    5    6   -0.78894681E-01 -0.62265876E-04
    6    6    0.10779850E+00 -0.15232224E-04
    7    6    0.27821164E+00 -0.25171734E-04
    8    6   -0.86756352E-01  0.33420312E-04
    1    7    0.80734019E-02 -0.25393139E-04
    2    7    0.19164451E-02 -0.46852963E-05
    3    7    0.48392448E-02  0.13151677E-04
    4    7   -0.71014785E-02  0.28764112E-04
    5    7   -0.86763440E-01  0.51252739E-04
    6    7   -0.86770506E-01  0.56183366E-05
    7    7   -0.84954028E-01  0.70900208E-04
    8    7    0.10863720E+00 -0.67362969E-04
    1    8   -0.70868081E-02  0.22941338E-04
    2    8    0.25646470E-01 -0.37806140E-04
    3    8   -0.71159456E-02 -0.12356963E-05
    4    8   -0.12329610E-01 -0.80603557E-04
    5    8    0.27819695E+00 -0.79048089E-04
    6    8    0.27821505E+00 -0.26968378E-04
    7    8   -0.42706796E+00 -0.97193091E-04
    8    8   -0.84946469E-01  0.72047556E-04

   -1    0    2
    1    1    0.13535031E-01 -0.24790221E-04
    2    1    0.56245606E-01 -0.29642350E-04
    3    1   -0.50852301E-01  0.19472490E-04
    4    1    0.56248470E-01  0.75442198E-05
    5    1    0.19081276E-01  0.39520455E-04
    6    1   -0.22226469E-01 -0.18070883E-04
    7    1    0.94905209E-02 -0.53917287E-05
    8    1   -0.22229782E-01 -0.20959580E-05
    1    2   -0.17137943E-01  0.51333177E-05
    2    2   -0.60660601E-02 -0.91440064E-05
    3    2    0.14861907E-01 -0.36603613E-05
    4    2   -0.10441276E-01  0.62250101E-05
    5    2   -0.22229160E-01 -0.16398404E-04
    6    2    0.19079930E-01 -0.98715233E-06
    7    2    0.94955371E-02 -0.43133869E-05
    8    2   -0.22232601E-01  0.16317353E-04
    1    3    0.43511014E-02  0.34572348E-04
    2    3    0.22195556E-01 -0.16305226E-04
    3    3   -0.16440459E-01 -0.11361299E-04
    4    3    0.22195916E-01 -0.71883173E-05
    5    3    0.94943235E-02 -0.12073131E-04
    6    3    0.94965032E-02  0.10571078E-07
    7    3   -0.42256229E-01 -0.17214931E-05
    8    3    0.94972074E-02  0.13866079E-04
    1    4   -0.17133221E-01 -0.27430876E-04
    2    4   -0.10444426E-01  0.35909203E-04
    3    4    0.14861219E-01 -0.85399855E-05
    4    4   -0.60674035E-02 -0.40537287E-05
    5    4   -0.22228801E-01  0.66067996E-06
    6    4   -0.22234006E-01  0.15023333E-04
    7    4    0.94940137E-02  0.75796813E-05
    8    4    0.19084075E-01 -0.33423465E-04
    1    5   -0.12707414E-01  0.61741656E-06
    2    5    0.96267725E-02  0.20415148E-04
    3    5    0.11413293E-01 -0.13151753E-04
    4    5    0.96282999E-02 -0.13561359E-04
    5    5    0.13540634E-01 -0.36272527E-04
    6    5   -0.17136847E-01  0.10544489E-04
    7    5    0.43481422E-02  0.15169880E-04
    8    5   -0.17136099E-01 -0.17108646E-04
    1    6    0.96285393E-02  0.20125774E-04
    2    6   -0.15322262E-01 -0.10652084E-04
    3    6    0.14531267E-01  0.58604455E-05
    4    6   -0.19316360E-01 -0.24621859E-04
    5    6    0.56243693E-01 -0.30231098E-04
    6    6   -0.60627418E-02  0.60737163E-06
    7    6    0.22193920E-01 -0.23289524E-04
    8    6   -0.10440517E-01  0.35168129E-04
    1    7    0.11411477E-01 -0.15580283E-04
    2    7    0.14532013E-01  0.83948437E-05
    3    7   -0.33738211E-01  0.11190011E-04
    4    7    0.14535130E-01  0.18916165E-04
    5    7   -0.50850282E-01  0.23302126E-04
    6    7    0.14855512E-01 -0.13379663E-04
    7    7   -0.16435636E-01  0.41563773E-05
    8    7    0.14859281E-01 -0.16817870E-04
    1    8    0.96253267E-02 -0.14081240E-04
    2    8   -0.19314721E-01 -0.24367234E-04
    3    8    0.14535502E-01  0.13958751E-04
    4    8   -0.15326694E-01  0.74094579E-05
    5    8    0.56246813E-01  0.63725948E-05
    6    8   -0.10438387E-01  0.97399477E-05
    7    8    0.22196108E-01 -0.10795456E-04
    8    8   -0.60695210E-02  0.18037214E-05

   -1    1   -2
    1    1   -0.18051045E-01  0.15218793E-04
    2    1    0.77186658E-02  0.26744923E-05
    3    1    0.77174694E-02  0.47471883E-06
    4    1    0.62373265E-02 -0.27002324E-04
    5    1    0.14537698E-01 -0.32736796E-04
    6    1   -0.16469852E-01  0.17058572E-04
    7    1   -0.16469744E-01 -0.28842973E-05
    8    1    0.82319281E-02  0.20642289E-04
    1    2    0.23874719E-02 -0.16814710E-04
    2    2   -0.45961948E-02  0.46834754E-06
    3    2   -0.87860353E-02  0.10801014E-04
    4    2    0.77181157E-02  0.38771425E-05
    5    2   -0.16469296E-01  0.14283119E-04
    6    2    0.13818892E-02  0.41898236E-05
    7    2    0.36225585E-02  0.11150058E-04
    8    2    0.11494992E-01 -0.25398654E-04
    1    3    0.23867827E-02 -0.72367675E-05
    2    3   -0.87842356E-02  0.87168525E-05
    3    3   -0.45942148E-02 -0.10863862E-05
    4    3    0.77179089E-02  0.56247768E-05
    5    3   -0.16467209E-01  0.78114563E-05
    6    3    0.36224319E-02  0.74151279E-05
[...]
    2    2   -0.22479160E-06 -0.11213353E-05 -0.10693721E-02  0.20406672E-05 -0.22479160E-06 -0.11213353E-05
    3    2    0.11938225E-02 -0.38411532E-05  0.23821107E-02 -0.96199601E-06 -0.26503161E-02  0.17725701E-05
    4    2    0.22056698E-02  0.84601911E-06 -0.16338602E-03 -0.71200138E-06  0.63551470E-04 -0.79630523E-05
    5    2    0.20986763E-02 -0.16657009E-05  0.11680354E-02  0.14851913E-05 -0.39729932E-02 -0.13923036E-04
    6    2   -0.25234676E-02  0.25626534E-05  0.70042297E-03  0.43479982E-05  0.24113991E-02 -0.48131221E-05
    7    2   -0.83899519E-03 -0.14438555E-05  0.15385933E-02 -0.24980999E-05 -0.18005165E-03 -0.99754887E-06
    8    2   -0.50107780E-03  0.42689522E-05 -0.30109567E-02 -0.31187280E-05 -0.48611702E-03  0.12257077E-04
    1    3   -0.24896391E-02 -0.11205389E-04  0.49335343E-03  0.87778942E-05 -0.24911373E-02 -0.15678874E-06
    2    3    0.25058343E-02  0.12560261E-05  0.93909456E-03 -0.13144940E-05 -0.39966401E-02 -0.65533046E-06
    3    3   -0.33999008E-03  0.46220462E-06 -0.43427824E-03  0.51347206E-06 -0.33999008E-03  0.46220462E-06
    4    3   -0.39968265E-02  0.48138262E-05  0.93699993E-03 -0.73637891E-05  0.25065177E-02  0.16662897E-05
    5    3    0.20833047E-02  0.10353418E-04 -0.29534778E-03 -0.12669389E-04  0.20799429E-02  0.48224946E-05
    6    3    0.17980263E-03  0.17200853E-05  0.72501014E-03 -0.38681126E-05  0.43700077E-03 -0.74703711E-06
    7    3   -0.10061376E-03  0.25020350E-05 -0.27727386E-02  0.20443389E-05 -0.10088633E-03 -0.33807541E-05
    8    3    0.43741159E-03 -0.14216666E-04  0.72575095E-03  0.91881747E-05  0.18062835E-03  0.17808903E-05
    1    4    0.30301919E-02  0.99769371E-05 -0.14516454E-02  0.76394303E-05 -0.34692231E-02 -0.13267345E-05
    2    4    0.67013768E-04  0.47954590E-06 -0.16300516E-03 -0.22987675E-05  0.22043157E-02 -0.12731275E-05
    3    4   -0.26488830E-02  0.88039821E-05  0.23829231E-02 -0.77306716E-05  0.11935433E-02 -0.53379417E-05
    4    4   -0.91514557E-06 -0.16878512E-05 -0.10686252E-02  0.53174853E-05 -0.91514557E-06 -0.16878512E-05
    5    4   -0.39707616E-02 -0.16630390E-04  0.11713941E-02  0.27171181E-05  0.20996224E-02 -0.64913759E-05
    6    4   -0.48466748E-03 -0.72093828E-05 -0.30133846E-02 -0.39701328E-05 -0.50479641E-03  0.35697289E-05
    7    4   -0.17964191E-03  0.14929256E-05  0.15364548E-02  0.71987998E-05 -0.83792660E-03  0.10872678E-04
    8    4    0.24080860E-02  0.10913125E-04  0.70039334E-03  0.15174960E-05 -0.25203231E-02 -0.13400032E-04
    1    5   -0.14206103E-02 -0.46817089E-05  0.12971207E-03  0.13697458E-04 -0.14219804E-02  0.28983225E-05
    2    5    0.18958937E-02  0.77571811E-07 -0.86634136E-03 -0.13120788E-05 -0.15377826E-02 -0.10001757E-05
    3    5    0.10678431E-02  0.77384913E-05  0.87306266E-03 -0.59123353E-05  0.10686007E-02 -0.27394445E-05
    4    5   -0.15381955E-02 -0.40331987E-05 -0.86613590E-03  0.13280978E-05  0.18956728E-02 -0.16531798E-05
    5    5   -0.34052486E-03 -0.67027212E-05  0.43489920E-03  0.44385584E-05 -0.34052486E-03 -0.67027212E-05
    6    5   -0.25257742E-02 -0.40117223E-05  0.22528842E-03 -0.41215997E-05  0.22704012E-02  0.20858159E-05
    7    5    0.10170976E-08 -0.21305645E-05  0.70244648E-03  0.71676830E-05 -0.10681882E-06  0.54303441E-05
    8    5    0.22709496E-02  0.97913349E-06  0.22518886E-03  0.44964326E-05 -0.25248887E-02 -0.85387414E-05
    1    6    0.32264566E-02 -0.28083697E-05  0.21665913E-04  0.96796029E-05 -0.64774540E-03 -0.50244689E-05
    2    6   -0.34718951E-02  0.20763907E-06  0.32000203E-02 -0.11062014E-05  0.16459120E-02 -0.11100252E-06
    3    6    0.82045798E-03 -0.30664121E-05 -0.13054754E-02 -0.21576023E-05 -0.11098467E-02  0.32955771E-05
    4    6    0.59094390E-03  0.38855619E-05 -0.26124490E-02 -0.74689813E-05  0.14967176E-03  0.29275960E-05
    5    6   -0.21830589E-02  0.58682103E-05 -0.21594144E-02 -0.11135736E-04  0.21952099E-02  0.26035336E-05
    6    6    0.22858209E-06  0.32059669E-07  0.10696327E-02 -0.13981168E-05  0.22858209E-06  0.32059669E-07
    7    6    0.25250171E-02 -0.12243872E-05  0.96485246E-03 -0.59960413E-06 -0.22687838E-02 -0.75384761E-06
    8    6   -0.33410895E-03 -0.14581614E-05 -0.40248600E-03  0.12327602E-04  0.33539712E-03 -0.27702561E-05
    1    7   -0.78132435E-03  0.36318945E-05  0.13779297E-02 -0.15131106E-04 -0.77937910E-03 -0.17452988E-05
    2    7    0.13266025E-02 -0.10911256E-05  0.77474821E-03  0.60464366E-06 -0.13847847E-02  0.17936461E-05
    3    7    0.35059062E-04  0.12471036E-05 -0.14927024E-02  0.22479330E-05  0.35934156E-04 -0.84558398E-06
    4    7   -0.13834598E-02 -0.30861580E-05  0.77407084E-03  0.12142374E-04  0.13262029E-02  0.67030755E-06
    5    7    0.14260259E-05 -0.63534726E-05  0.13080141E-02  0.14713500E-04  0.22411910E-05  0.49592804E-05
    6    7    0.21831421E-02 -0.29408495E-05  0.10199901E-03  0.18576039E-05 -0.21974201E-02  0.30187422E-05
    7    7    0.33839620E-03 -0.67577235E-06  0.43434974E-03 -0.90990098E-06  0.33839620E-03 -0.67577235E-06
    8    7   -0.21977666E-02  0.62656894E-05  0.98753038E-04 -0.14802238E-04  0.21829397E-02 -0.35992079E-05
    1    8   -0.64883254E-03 -0.39527717E-06  0.23303477E-04 -0.10642108E-04  0.32253665E-02 -0.65917189E-07
    2    8    0.14937371E-03  0.19506613E-06 -0.26132722E-02  0.21908796E-05  0.59198355E-03  0.10078223E-05
    3    8   -0.11080302E-02 -0.45153308E-05 -0.13047344E-02  0.54192396E-05  0.82134896E-03  0.81243714E-07
    4    8    0.16473224E-02  0.71240666E-05  0.31990669E-02 -0.30125038E-05 -0.34709022E-02 -0.27240973E-06
    5    8    0.21976789E-02  0.45073986E-05 -0.21593996E-02  0.48682562E-05 -0.21793737E-02  0.47101009E-05
    6    8    0.33522676E-03  0.61460389E-05 -0.40301796E-03  0.48958487E-05 -0.33583188E-03 -0.29082512E-05
    7    8   -0.22682849E-02 -0.49219903E-06  0.96610786E-03 -0.73039371E-05  0.25252149E-02 -0.19100795E-05
    8    8   -0.13114889E-05  0.13277545E-05  0.10695539E-02 -0.55445140E-05 -0.13114889E-05  0.13277545E-05

    2    2   -2
    1    1   -0.19201220E-15  0.70924130E-20  0.11688784E-14  0.38137058E-18 -0.16685871E-15  0.27868947E-18
    2    1    0.32378271E-07  0.42300421E-05  0.22208089E-04 -0.36443277E-06  0.24554132E-04  0.52285092E-05
    3    1    0.23749785E-04 -0.89804429E-05  0.14506436E-05  0.94516847E-05  0.24291759E-04 -0.11570723E-05
    4    1    0.25421730E-04  0.90680922E-05  0.24677379E-04  0.10145663E-04  0.12996005E-08  0.37206903E-05
    5    1    0.69260106E-03  0.25498559E-05  0.69222509E-03  0.17847627E-04  0.69154175E-03  0.25441510E-05
    6    1   -0.16642219E-02 -0.35983085E-05  0.26756880E-03  0.86396394E-05  0.26642157E-03 -0.47893349E-05
    7    1    0.26796091E-03  0.63286031E-05 -0.16624072E-02 -0.12286183E-04  0.26601261E-03 -0.24267486E-05
    8    1    0.26584434E-03 -0.86258613E-05  0.26489940E-03 -0.13477255E-04 -0.16626326E-02 -0.12793702E-05
    1    2   -0.32378271E-07  0.42300421E-05 -0.22208089E-04 -0.36443277E-06 -0.24554132E-04  0.52285092E-05
    2    2   -0.41882730E-15  0.58866424E-20 -0.94715902E-15 -0.61419358E-20 -0.32320067E-15 -0.65466107E-18
    3    2    0.24547674E-04  0.14803189E-07 -0.25691804E-04  0.13469590E-05  0.32100258E-06  0.14716805E-06
    4    2    0.23614762E-04 -0.27404990E-05 -0.83287206E-06  0.11482792E-05 -0.25428321E-04 -0.41066662E-05
    5    2   -0.16257583E-02 -0.36326964E-05  0.10849620E-02  0.32142885E-05  0.10858547E-02 -0.67424148E-05
    6    2    0.13125470E-02 -0.79407422E-06 -0.38055697E-02 -0.12989917E-05 -0.38035448E-02 -0.33287930E-05
    7    2    0.15649660E-03  0.10192890E-06 -0.28362777E-03 -0.55732477E-06  0.35889855E-02  0.43356102E-06
    8    2    0.15760045E-03  0.47815738E-05  0.35900315E-02 -0.10804599E-05 -0.28541226E-03  0.67655006E-05
    1    3   -0.23749785E-04 -0.89804429E-05 -0.14506436E-05  0.94516847E-05 -0.24291759E-04 -0.11570723E-05
    2    3   -0.24547674E-04  0.14803188E-07  0.25691804E-04  0.13469590E-05 -0.32100258E-06  0.14716805E-06
    3    3   -0.20339633E-14  0.27865254E-18 -0.32959746E-16 -0.27874220E-18 -0.20200855E-14  0.63250087E-20
    4    3    0.48994934E-07  0.56347299E-05  0.24309101E-04 -0.10495349E-04 -0.24261720E-04  0.28563488E-06
    5    3    0.10868892E-02  0.95243838E-05 -0.16244350E-02 -0.12244831E-04  0.10853125E-02 -0.46243080E-06
    6    3   -0.28538766E-03  0.14087012E-05  0.15601102E-03 -0.10788957E-05  0.35895782E-02  0.10530964E-05
    7    3   -0.38044934E-02  0.24143128E-06  0.13122284E-02  0.27236151E-05 -0.38045149E-02 -0.15522731E-05
    8    3    0.35887133E-02 -0.83520655E-05  0.15612354E-03  0.95612567E-05 -0.28531913E-03  0.18837308E-05
    1    4   -0.25421730E-04  0.90680922E-05 -0.24677379E-04  0.10145663E-04 -0.12996012E-08  0.37206903E-05
    2    4   -0.23614762E-04 -0.27404990E-05  0.83287206E-06  0.11482792E-05  0.25428321E-04 -0.41066662E-05
    3    4   -0.48994935E-07  0.56347299E-05 -0.24309101E-04 -0.10495349E-04  0.24261720E-04  0.28563488E-06
    4    4   -0.86204915E-15 -0.38249645E-18 -0.11957666E-14 -0.50522410E-20 -0.82735468E-15  0.27912478E-18
    5    4    0.10859090E-02 -0.10049032E-04  0.10865125E-02 -0.36123749E-05 -0.16243719E-02 -0.59129716E-06
    6    4   -0.28316418E-03  0.25975960E-05  0.35887056E-02 -0.40355060E-05  0.15410496E-03  0.54624398E-05
    7    4    0.35878278E-02 -0.45749000E-05 -0.28564995E-03  0.85700826E-05  0.15628653E-03  0.30188858E-05
    8    4   -0.38059641E-02  0.13297156E-04 -0.38043802E-02  0.28653665E-05  0.13142096E-02 -0.27414002E-06
    1    5   -0.69260106E-03  0.25498560E-05 -0.69222509E-03  0.17847627E-04 -0.69154175E-03  0.25441510E-05
    2    5    0.16257583E-02 -0.36326964E-05 -0.10849620E-02  0.32142885E-05 -0.10858547E-02 -0.67424148E-05
    3    5   -0.10868892E-02  0.95243838E-05  0.16244350E-02 -0.12244831E-04 -0.10853125E-02 -0.46243081E-06
    4    5   -0.10859090E-02 -0.10049032E-04 -0.10865125E-02 -0.36123749E-05  0.16243719E-02 -0.59129716E-06
    5    5    0.79363599E-16 -0.78404143E-20  0.38597597E-16 -0.38137777E-18  0.14875254E-15 -0.27850840E-18
    6    5    0.67131572E-03  0.24039716E-05  0.25915481E-03 -0.55382975E-05  0.25800508E-03  0.39312946E-05
    7    5    0.25878965E-03 -0.73539192E-05  0.67045415E-03  0.11070830E-04  0.25913727E-03 -0.11076749E-05
    8    5    0.25842850E-03  0.68641756E-05  0.25907919E-03  0.80520224E-05  0.67135637E-03  0.14731902E-06
    1    6    0.16642219E-02 -0.35983085E-05 -0.26756880E-03  0.86396394E-05 -0.26642157E-03 -0.47893349E-05
    2    6   -0.13125470E-02 -0.79407422E-06  0.38055697E-02 -0.12989917E-05  0.38035448E-02 -0.33287930E-05
    3    6    0.28538766E-03  0.14087012E-05 -0.15601102E-03 -0.10788957E-05 -0.35895782E-02  0.10530964E-05
    4    6    0.28316418E-03  0.25975960E-05 -0.35887056E-02 -0.40355060E-05 -0.15410496E-03  0.54624398E-05
    5    6   -0.67131572E-03  0.24039716E-05 -0.25915481E-03 -0.55382975E-05 -0.25800508E-03  0.39312946E-05
    6    6    0.49266147E-15 -0.62684617E-20  0.10911411E-14  0.62733015E-20  0.49613091E-15  0.65506715E-18
    7    6   -0.41127599E-03  0.93708175E-06  0.41024219E-03  0.22122931E-06 -0.58067213E-06 -0.16265896E-05
    8    6   -0.41073052E-03 -0.14940778E-05  0.35057204E-06  0.56222249E-05  0.41114248E-03 -0.24181943E-05
    1    7   -0.26796091E-03  0.63286031E-05  0.16624072E-02 -0.12286183E-04 -0.26601261E-03 -0.24267486E-05
    2    7   -0.15649660E-03  0.10192890E-06  0.28362777E-03 -0.55732477E-06 -0.35889855E-02  0.43356102E-06
    3    7    0.38044934E-02  0.24143128E-06 -0.13122284E-02  0.27236151E-05  0.38045149E-02 -0.15522731E-05
    4    7   -0.35878278E-02 -0.45749000E-05  0.28564995E-03  0.85700826E-05 -0.15628653E-03  0.30188858E-05
    5    7   -0.25878965E-03 -0.73539192E-05 -0.67045415E-03  0.11070830E-04 -0.25913727E-03 -0.11076749E-05
    6    7    0.41127599E-03  0.93708175E-06 -0.41024219E-03  0.22122931E-06  0.58067213E-06 -0.16265896E-05
    7    7    0.10728180E-15 -0.27893871E-18  0.26915319E-15  0.27881111E-18 -0.11546753E-16 -0.61422525E-20
    8    7   -0.23195305E-06  0.38901680E-05 -0.41263309E-03 -0.12358350E-04  0.41110173E-03  0.23351014E-05
    1    8   -0.26584434E-03 -0.86258613E-05 -0.26489940E-03 -0.13477255E-04  0.16626326E-02 -0.12793702E-05
    2    8   -0.15760045E-03  0.47815738E-05 -0.35900315E-02 -0.10804599E-05  0.28541226E-03  0.67655006E-05
    3    8   -0.35887133E-02 -0.83520655E-05 -0.15612354E-03  0.95612567E-05  0.28531913E-03  0.18837308E-05
    4    8    0.38059641E-02  0.13297156E-04  0.38043802E-02  0.28653665E-05 -0.13142096E-02 -0.27414002E-06
    5    8   -0.25842850E-03  0.68641756E-05 -0.25907919E-03  0.80520224E-05 -0.67135637E-03  0.14731902E-06
    6    8    0.41073052E-03 -0.14940778E-05 -0.35057204E-06  0.56222249E-05 -0.41114248E-03 -0.24181943E-05
    7    8    0.23195305E-06  0.38901680E-05  0.41263309E-03 -0.12358350E-04 -0.41110173E-03  0.23351014E-05
    8    8    0.38294021E-15  0.38239226E-18  0.44669130E-16  0.51090397E-20  0.42977774E-15 -0.27878645E-18

    3   -1   -1
    1    1   -0.16653269E-03 -0.66110870E-05 -0.16870438E-03  0.41502270E-05 -0.16523996E-03  0.21498340E-05
    2    1    0.65039939E-04  0.72479996E-05  0.52365534E-03 -0.59776384E-05  0.52383189E-03  0.12294565E-04
    3    1    0.52179897E-03  0.28716605E-05  0.68237700E-04 -0.11773875E-05  0.52306974E-03 -0.63354146E-05
    4    1    0.52321110E-03 -0.49347339E-05  0.52400789E-03 -0.13713343E-04  0.65746913E-04 -0.15217567E-04
    5    1    0.26867067E-02 -0.86743209E-05  0.26877031E-02 -0.30442383E-05  0.26840739E-02 -0.11677804E-04
    6    1    0.42509278E-02  0.75438031E-05 -0.12481196E-02  0.10879889E-04 -0.12460874E-02  0.31661235E-05
    7    1   -0.12438243E-02  0.72860389E-05  0.42504017E-02 -0.13088369E-04 -0.12476902E-02 -0.69159524E-05
    8    1   -0.12450235E-02 -0.13868052E-04 -0.12442063E-02  0.20164313E-04  0.42545002E-02  0.52329602E-05
    1    2    0.66909580E-04 -0.10403731E-04 -0.52554587E-03  0.39623214E-05 -0.52189753E-03 -0.16933075E-04
    2    2   -0.16753259E-03  0.76110347E-07  0.16809201E-03  0.19590636E-05  0.16644382E-03  0.49421006E-06
    3    2    0.52317718E-03  0.15732295E-05 -0.52310300E-03  0.98243182E-06 -0.67283797E-04  0.24741728E-05
    4    2    0.52547790E-03  0.91170329E-05 -0.66641490E-04 -0.35072979E-05 -0.52195680E-03  0.16562631E-04
    5    2   -0.42444102E-02  0.96760473E-05  0.17310855E-02 -0.43897827E-05  0.17290241E-02  0.15768992E-04
    6    2    0.13070636E-02 -0.21875134E-05  0.16537178E-02 -0.18641725E-06  0.16527500E-02  0.33525465E-06
    7    2   -0.19188594E-02  0.34829786E-05 -0.29575824E-02  0.59876507E-05 -0.21619631E-02 -0.84548686E-06
    8    2   -0.19187162E-02 -0.12031482E-04 -0.21664700E-02 -0.29815700E-05 -0.29572164E-02 -0.16955472E-04
    1    3   -0.52614238E-03  0.16069453E-04  0.68984458E-04 -0.19166509E-04 -0.52529215E-03  0.20060297E-05
    2    3   -0.52275154E-03 -0.71510968E-06  0.52233785E-03 -0.18020829E-05 -0.66741503E-04 -0.25102482E-05
    3    3    0.16876155E-03  0.11197417E-05 -0.16715995E-03  0.28583912E-05  0.16982349E-03  0.29993606E-06
    4    3   -0.67561523E-04 -0.13994873E-04  0.52321187E-03  0.18780708E-04 -0.52353070E-03  0.22544396E-06
    5    3    0.17312736E-02 -0.92120182E-05 -0.42480427E-02  0.14919232E-04  0.17318209E-02  0.32216460E-06
    6    3   -0.29585941E-02  0.37444817E-06 -0.19187963E-02 -0.56181297E-05 -0.21653575E-02  0.11495775E-05
    7    3    0.16521148E-02 -0.18059804E-05  0.13082393E-02 -0.12624271E-05  0.16531699E-02  0.98094615E-06
    8    3   -0.21644291E-02  0.15208283E-04 -0.19158567E-02 -0.13255057E-04 -0.29576452E-02 -0.45159302E-06
    1    4   -0.52300284E-03 -0.58049083E-05 -0.52243865E-03 -0.40325662E-05  0.66402248E-04  0.81924007E-05
    2    4   -0.52304535E-03 -0.92600464E-05 -0.66994043E-04  0.46188673E-05  0.52406406E-03 -0.10142553E-04
    3    4   -0.67684780E-04  0.12682786E-05 -0.52355522E-03  0.14178541E-05  0.52202128E-03  0.32562433E-05
    4    4    0.16810159E-03  0.18207994E-05  0.16799586E-03 -0.36729108E-05 -0.16509572E-03  0.53106116E-06
    5    4    0.17251886E-02  0.17582955E-04  0.17300029E-02 -0.13287021E-04 -0.42462828E-02  0.22331565E-05
    6    4   -0.29560787E-02 -0.81231156E-05 -0.21606353E-02 -0.95559590E-05 -0.19153445E-02 -0.63326046E-05
    7    4   -0.21632256E-02 -0.60050841E-05 -0.29590806E-02  0.12703992E-04 -0.19173728E-02  0.11379767E-04
    8    4    0.16534118E-02  0.32380451E-05  0.16521390E-02 -0.14718600E-05  0.13040472E-02  0.50164725E-05
    1    5   -0.16330091E-02  0.32123434E-05 -0.16306763E-02 -0.23322613E-04 -0.16328643E-02  0.10283800E-04
    2    5   -0.74411911E-02 -0.60110044E-05  0.38477727E-02  0.72642797E-05  0.38475642E-02 -0.11539488E-04
    3    5    0.38488697E-02 -0.37461903E-06 -0.74434541E-02  0.88513301E-05  0.38465992E-02  0.88667396E-05
    4    5    0.38474154E-02  0.62817823E-05  0.38467766E-02  0.62575407E-05 -0.74411694E-02  0.18400788E-05
    5    5    0.16698226E-03  0.67359716E-05  0.16925117E-03 -0.43391291E-05  0.16902799E-03 -0.28043344E-05
    6    5   -0.65899278E-03 -0.63136536E-05 -0.19598474E-02 -0.12276036E-04 -0.19574690E-02 -0.26935137E-05
    7    5   -0.19612659E-02 -0.35425026E-05 -0.65986254E-03  0.11297336E-04 -0.19596518E-02  0.13027131E-04
    8    5   -0.19591121E-02  0.77713768E-05 -0.19588724E-02 -0.21345118E-04 -0.66220716E-03  0.43183788E-05
    1    6   -0.76003905E-02  0.13962856E-05  0.43852914E-02 -0.12103127E-04  0.43870330E-02  0.38083192E-05
    2    6    0.53556490E-02  0.41492869E-05 -0.62838396E-03  0.15005437E-05 -0.62793711E-03 -0.98715400E-06
    3    6    0.27121459E-02 -0.53235366E-06  0.44103086E-03 -0.85824127E-06 -0.60697824E-02  0.38688354E-07
    4    6    0.27146473E-02 -0.42363056E-05 -0.60691269E-02  0.11710282E-04  0.44087626E-03  0.52143443E-06
    5    6   -0.12986964E-02 -0.18414766E-05  0.15196042E-02  0.90620455E-05  0.15205071E-02 -0.35273163E-05
    6    6    0.16688703E-03  0.13556178E-06 -0.16636445E-03 -0.10940294E-05 -0.16471387E-03 -0.11877056E-05
    7    6   -0.25382902E-02 -0.66430221E-06  0.15828572E-02 -0.11086005E-05  0.28235661E-03 -0.16145741E-05
    8    6   -0.25362256E-02 -0.11586421E-05  0.28059334E-03 -0.90267428E-05  0.15816967E-02  0.27315069E-05
    1    7    0.43874979E-02 -0.12859707E-04 -0.76004335E-02  0.18815961E-04  0.43840485E-02  0.16157361E-05
    2    7    0.44105419E-03  0.70507266E-06  0.27149524E-02 -0.35560129E-05 -0.60704768E-02  0.45732283E-05
    3    7   -0.62795396E-03  0.11075246E-05  0.53553975E-02  0.50031172E-08 -0.62583069E-03  0.19430171E-05
    4    7   -0.60716762E-02  0.82938290E-05  0.27118859E-02 -0.17150068E-04  0.44194990E-03 -0.63537781E-05
    5    7    0.15190781E-02  0.11783323E-04 -0.13001928E-02 -0.11223485E-04  0.15211754E-02  0.28967495E-05
    6    7    0.15813199E-02  0.15611283E-05 -0.25385451E-02  0.34535777E-05  0.28001064E-03  0.26670949E-05
    7    7   -0.16545550E-03 -0.14515915E-05  0.16629313E-03 -0.31472210E-05 -0.16718005E-03 -0.36422288E-06
    8    7    0.28177400E-03 -0.94486181E-05 -0.25357778E-02  0.15174112E-04  0.15814920E-02 -0.31420884E-05
    1    8    0.43874544E-02  0.12700338E-04  0.43850142E-02  0.12579825E-04 -0.75991143E-02 -0.15472919E-05
    2    8    0.44123938E-03  0.23325249E-05 -0.60712001E-02 -0.29645695E-05  0.27141563E-02  0.88050906E-05
    3    8   -0.60706274E-02 -0.94257355E-06  0.44289905E-03 -0.54670046E-05  0.27124463E-02 -0.11844716E-04
    4    8   -0.62911116E-03 -0.15444632E-04 -0.62564472E-03 -0.41963739E-05  0.53549343E-02 -0.88753507E-05
    5    8    0.15205733E-02 -0.26595779E-04  0.15208304E-02  0.53299924E-05 -0.13012848E-02 -0.83238784E-05
    6    8    0.15835043E-02  0.48089483E-05  0.28157808E-03  0.99357991E-05 -0.25384341E-02  0.32271622E-05
    7    8    0.28224814E-03  0.55796598E-05  0.15818144E-02 -0.94137374E-05 -0.25386047E-02 -0.94574313E-05
    8    8   -0.16662028E-03 -0.23153829E-05 -0.16668891E-03  0.43085938E-05  0.16998035E-03 -0.13847734E-05
