 written on 30Aug2016 at 16:16:53 
          14
         279
    3    2    2    3    2    3    6    2    2    2    1    2    2    1    1
    2    2    1    1    1    2    2    1    1    1    1    2    6    2    2
    2    2    2    6    2    2    3    1    1    1    3    2    1    1    1
    1    2    3    1    1    1    1    1    3    1    1    1    1    1    1
    2    1    1    1    1    1    2    2    1    1    1    1    2    3    2
    3    2    1    2    2    1    1    1    1    2    2    1    1    1    1
    1    2    1    1    1    1    1    1    2    1    1    1    1    1    2
    1    1    1    1    1    1    2    1    1    1    2    2    2    3    2
    1    1    2    3    1    1    1    1    1    3    1    1    1    1    1
    1    2    1    1    1    1    1    2    1    1    1    1    1    1    3
    1    1    1    1    1    3    2    1    1    2    3    2    2    2    1
    1    1    2    1    1    1    1    1    1    2    1    1    1    1    1
    2    1    1    1    1    1    1    2    1    1    1    1    1    2    2
    1    1    1    1    2    2    1    2    3    2    3    2    1    1    1
    1    2    2    1    1    1    1    1    2    1    1    1    1    1    1
    3    1    1    1    1    1    3    2    1    1    1    1    2    3    1
    1    1    3    2    2    6    2    2    2    2    2    6    2    1    1
    1    1    2    2    1    1    1    2    2    1    1    2    2    1    2
    2    2    6    3    2    3    2    2    3
   -4    0    2    1    1   -0.004472   -0.000000
   -4    0    2    2    1   -0.003439    0.000001
   -4    0    2    3    1   -0.003435    0.000234
   -4    0    2    4    1    0.003438    0.000235
   -4    0    2    5    1   -0.000118    0.000108
   -4    0    2    6    1   -0.000118    0.000109
   -4    0    2    7    1    0.000932   -0.000164
   -4    0    2    8    1   -0.000001   -0.000001
   -4    0    2    9    1    0.000236   -0.000231
   -4    0    2   10    1   -0.000234    0.000002
   -4    0    2   11    1    0.000002   -0.000230
   -4    0    2   12    1   -0.000154   -0.000105
   -4    0    2   13    1    0.000152   -0.000114
   -4    0    2   14    1   -0.000001    0.000168
   -4    0    2    1    2   -0.003918    0.000001
   -4    0    2    2    2    0.001665   -0.000000
   -4    0    2    3    2   -0.001870   -0.000192
   -4    0    2    4    2    0.001852   -0.000173
   -4    0    2    5    2   -0.001497   -0.000125
   -4    0    2    6    2    0.002652   -0.000144
   -4    0    2    7    2    0.000322    0.000211
   -4    0    2    8    2    0.000053   -0.000052
   -4    0    2    9    2    0.000162   -0.000193
   -4    0    2   10    2   -0.000052   -0.000126
   -4    0    2   11    2   -0.000128   -0.000057
   -4    0    2   12    2   -0.000363   -0.000288
   -4    0    2   13    2   -0.000021    0.000021
   -4    0    2   14    2    0.000189    0.000055
   -4    0    2    1    3   -0.003915    0.000050
   -4    0    2    2    3   -0.001870    0.000152
   -4    0    2    3    3    0.001637    0.000176
   -4    0    2    4    3    0.001862    0.000037
   -4    0    2    5    3    0.002655   -0.000023
   -4    0    2    6    3   -0.001494    0.000285
   -4    0    2    7    3    0.000324   -0.000057
   -4    0    2    8    3   -0.000051    0.000000
   -4    0    2    9    3    0.000040    0.000176
   -4    0    2   10    3   -0.000178   -0.000008
   -4    0    2   11    3    0.000142    0.000187
   -4    0    2   12    3    0.000021    0.000145
   -4    0    2   13    3    0.000365    0.000126
   -4    0    2   14    3   -0.000188   -0.000209
   -4    0    2    1    4    0.003919    0.000051
   -4    0    2    2    4    0.001852    0.000135
   -4    0    2    3    4    0.001862   -0.000039
   -4    0    2    4    4    0.001669   -0.000176
   -4    0    2    5    4    0.002799    0.000062
   -4    0    2    6    4    0.002804   -0.000114
   -4    0    2    7    4    0.000616    0.000020
   -4    0    2    8    4    0.000001   -0.000053
   -4    0    2    9    4    0.000179    0.000071
   -4    0    2   10    4   -0.000189   -0.000127
   -4    0    2   11    4    0.000006    0.000188
   -4    0    2   12    4    0.000112    0.000116
   -4    0    2   13    4   -0.000111   -0.000067
   -4    0    2   14    4   -0.000000   -0.000023
   -4    0    2    1    5   -0.001500    0.000229
   -4    0    2    2    5   -0.000067    0.000045
   -4    0    2    3    5    0.001348    0.000260
   -4    0    2    4    5    0.001196   -0.000350
   -4    0    2    5    5    0.001099   -0.000001
   -4    0    2    6    5   -0.000186    0.000044
   -4    0    2    7    5    0.000191    0.000041
   -4    0    2    8    5    0.000081    0.000314
   -4    0    2    9    5   -0.000114    0.000145
   -4    0    2   10    5   -0.000093    0.000120
   -4    0    2   11    5   -0.000122   -0.000360
   -4    0    2   12    5    0.000024   -0.000020
   -4    0    2   13    5   -0.000089   -0.000083
   -4    0    2   14    5   -0.000081   -0.000088
   -4    0    2    1    6   -0.001500   -0.000314
   -4    0    2    2    6    0.001344   -0.000122
   -4    0    2    3    6   -0.000068   -0.000147
   -4    0    2    4    6    0.001196    0.000354
   -4    0    2    5    6   -0.000187    0.000079
   -4    0    2    6    6    0.001101    0.000023
   -4    0    2    7    6    0.000189    0.000091
   -4    0    2    8    6   -0.000083   -0.000229
   -4    0    2    9    6    0.000092   -0.000258
   -4    0    2   10    6    0.000115   -0.000046
   -4    0    2   11    6    0.000123    0.000355
   -4    0    2   12    6    0.000091   -0.000042
   -4    0    2   13    6   -0.000023    0.000001
   -4    0    2   14    6    0.000081   -0.000042
   -4    0    2    1    7   -0.003083   -0.000027
   -4    0    2    2    7   -0.000554   -0.000249
   -4    0    2    3    7   -0.000554    0.000144
   -4    0    2    4    7    0.002061    0.000070
   -4    0    2    5    7    0.000190    0.000081
   -4    0    2    6    7    0.000187   -0.000090
   -4    0    2    7    7    0.001098   -0.000023
   -4    0    2    8    7    0.000001    0.000026
   -4    0    2    9    7   -0.000081   -0.000148
   -4    0    2   10    7    0.000081    0.000255
   -4    0    2   11    7    0.000001   -0.000066
   -4    0    2   12    7   -0.000043    0.000086
   -4    0    2   13    7    0.000044   -0.000083
   -4    0    2   14    7    0.000000    0.000021
   -4    0    2    1    8   -0.000001    0.000001
   -4    0    2    2    8   -0.000234   -0.000240
   -4    0    2    3    8    0.000235   -0.000002
   -4    0    2    4    8    0.000001   -0.000241
   -4    0    2    5    8    0.000151   -0.000105
   -4    0    2    6    8   -0.000153   -0.000112
   -4    0    2    7    8   -0.000001    0.000160
   -4    0    2    8    8   -0.004471   -0.000000
   -4    0    2    9    8   -0.003438    0.000000
   -4    0    2   10    8   -0.003434   -0.000236
   -4    0    2   11    8    0.003440   -0.000236
   -4    0    2   12    8   -0.000117   -0.000113
   -4    0    2   13    8   -0.000113   -0.000105
   -4    0    2   14    8    0.000939    0.000164
   -4    0    2    1    9   -0.000050   -0.000053
   -4    0    2    2    9   -0.000190   -0.000159
   -4    0    2    3    9    0.000040   -0.000134
   -4    0    2    4    9    0.000140   -0.000073
   -4    0    2    5    9    0.000366   -0.000288
   -4    0    2    6    9    0.000022    0.000021
   -4    0    2    7    9   -0.000186    0.000054
   -4    0    2    8    9   -0.003916    0.000000
   -4    0    2    9    9    0.001670    0.000000
   -4    0    2   10    9   -0.001853    0.000173
   -4    0    2   11    9    0.001879    0.000180
   -4    0    2   12    9   -0.001494    0.000125
   -4    0    2   13    9    0.002651    0.000146
   -4    0    2   14    9    0.000322   -0.000209
   -4    0    2    1   10    0.000050    0.000000
   -4    0    2    2   10   -0.000051    0.000167
   -4    0    2    3   10    0.000175    0.000008
   -4    0    2    4   10   -0.000148    0.000167
   -4    0    2    5   10   -0.000022    0.000147
   -4    0    2    6   10   -0.000366    0.000126
   -4    0    2    7   10    0.000188   -0.000210
   -4    0    2    8   10   -0.003921   -0.000052
   -4    0    2    9   10   -0.001853   -0.000133
   -4    0    2   10   10    0.001680   -0.000176
   -4    0    2   11   10    0.001851   -0.000066
   -4    0    2   12   10    0.002652    0.000021
   -4    0    2   13   10   -0.001497   -0.000286
   -4    0    2   14   10    0.000320    0.000055
   -4    0    2    1   11   -0.000000   -0.000052
   -4    0    2    2   11   -0.000167    0.000058
   -4    0    2    3   11    0.000181   -0.000144
   -4    0    2    4   11    0.000005    0.000163
   -4    0    2    5   11   -0.000109    0.000116
   -4    0    2    6   11    0.000108   -0.000066
   -4    0    2    7   11   -0.000001   -0.000020
   -4    0    2    8   11    0.003917   -0.000052
   -4    0    2    9   11    0.001879   -0.000138
   -4    0    2   10   11    0.001850    0.000065
   -4    0    2   11   11    0.001682    0.000175
   -4    0    2   12   11    0.002805   -0.000067
   -4    0    2   13   11    0.002798    0.000116
   -4    0    2   14   11    0.000616   -0.000022
   -4    0    2    1   12   -0.000082    0.000315
   -4    0    2    2   12    0.000115    0.000148
   -4    0    2    3   12    0.000091    0.000123
   -4    0    2    4   12    0.000123   -0.000360
   -4    0    2    5   12   -0.000021   -0.000023
   -4    0    2    6   12    0.000090   -0.000080
   -4    0    2    7   12    0.000081   -0.000088
   -4    0    2    8   12   -0.001500   -0.000228
   -4    0    2    9   12   -0.000068   -0.000045
   -4    0    2   10   12    0.001346   -0.000257
   -4    0    2   11   12    0.001194    0.000356
   -4    0    2   12   12    0.001098   -0.000000
   -4    0    2   13   12   -0.000190   -0.000042
   -4    0    2   14   12    0.000185   -0.000042
   -4    0    2    1   13    0.000081   -0.000228
   -4    0    2    2   13   -0.000091   -0.000257
   -4    0    2    3   13   -0.000115   -0.000045
   -4    0    2    4   13   -0.000123    0.000355
   -4    0    2    5   13   -0.000088   -0.000040
   -4    0    2    6   13    0.000023   -0.000001
   -4    0    2    7   13   -0.000079   -0.000042
   -4    0    2    8   13   -0.001499    0.000314
   -4    0    2    9   13    0.001347    0.000121
   -4    0    2   10   13   -0.000071    0.000145
   -4    0    2   11   13    0.001193   -0.000361
   -4    0    2   12   13   -0.000188   -0.000082
   -4    0    2   13   13    0.001096   -0.000021
   -4    0    2   14   13    0.000189   -0.000088
   -4    0    2    1   14    0.000000    0.000027
   -4    0    2    2   14    0.000082   -0.000149
   -4    0    2    3   14   -0.000080    0.000254
   -4    0    2    4   14    0.000001   -0.000073
   -4    0    2    5   14    0.000040    0.000089
   -4    0    2    6   14   -0.000042   -0.000080
   -4    0    2    7   14   -0.000001    0.000023
   -4    0    2    8   14   -0.003085    0.000027
   -4    0    2    9   14   -0.000555    0.000255
   -4    0    2   10   14   -0.000554   -0.000149
   -4    0    2   11   14    0.002059   -0.000070
   -4    0    2   12   14    0.000184   -0.000081
   -4    0    2   13   14    0.000190    0.000088
   -4    0    2   14   14    0.001096    0.000022
   -4    1    1    1    1    0.000947   -0.000000
   -4    1    1    2    1    0.000000    0.000178
   -4    1    1    3    1    0.002566    0.000000
   -4    1    1    4    1    0.000001   -0.000011
   -4    1    1    5    1    0.002545    0.000113
   -4    1    1    6    1    0.003511    0.000084
   -4    1    1    7    1    0.002545    0.000153
   -4    1    1    8    1    0.000001    0.000001
   -4    1    1    9    1   -0.000012    0.000002
   -4    1    1   10    1    0.000000    0.000003
   -4    1    1   11    1    0.000180   -0.000000
   -4    1    1   12    1    0.000151    0.000161
   -4    1    1   13    1    0.000084    0.000001
   -4    1    1   14    1    0.000113   -0.000156
   -4    1    1    1    2    0.000000   -0.000050
   -4    1    1    2    2    0.000670   -0.000004
   -4    1    1    3    2   -0.000004    0.000348
   -4    1    1    4    2   -0.005930    0.000014
   -4    1    1    5    2   -0.002106    0.000267
   -4    1    1    6    2   -0.002877   -0.000208
   -4    1    1    7    2   -0.001135    0.000098
   -4    1    1    8    2   -0.000106   -0.000003
   -4    1    1    9    2   -0.000021    0.000192
   -4    1    1   10    2    0.000329    0.000026
   -4    1    1   11    2    0.000025   -0.000176
   -4    1    1   12    2    0.000157    0.000125
   -4    1    1   13    2   -0.000014    0.000202
   -4    1    1   14    2   -0.000256    0.000076
   -4    1    1    1    3    0.000765   -0.000000
   -4    1    1    2    3   -0.000002   -0.000015
   -4    1    1    3    3    0.002027   -0.000000
   -4    1    1    4    3   -0.000006   -0.000238
   -4    1    1    5    3    0.002114   -0.000065
   -4    1    1    6    3   -0.001934   -0.000507
   -4    1    1    7    3    0.002114   -0.000034
   -4    1    1    8    3   -0.000000    0.000001
   -4    1    1    9    3   -0.000233   -0.000004
   -4    1    1   10    3   -0.000002   -0.000010
   -4    1    1   11    3   -0.000027    0.000008
   -4    1    1   12    3   -0.000040   -0.000228
   -4    1    1   13    3   -0.000507    0.000002
   -4    1    1   14    3   -0.000060    0.000228
   -4    1    1    1    4    0.000000   -0.000107
   -4    1    1    2    4   -0.005930   -0.000014
   -4    1    1    3    4   -0.000008    0.000346
   -4    1    1    4    4    0.000672    0.000004
   -4    1    1    5    4   -0.001135   -0.000253
   -4    1    1    6    4   -0.002877   -0.000016
   -4    1    1    7    4   -0.002106    0.000149
   -4    1    1    8    4   -0.000050   -0.000002
   -4    1    1    9    4   -0.000008    0.000193
   -4    1    1   10    4    0.000351    0.000026
   -4    1    1   11    4    0.000009   -0.000199
   -4    1    1   12    4    0.000101   -0.000080
   -4    1    1   13    4   -0.000209   -0.000205
   -4    1    1   14    4    0.000261   -0.000126
   -4    1    1    1    5    0.004732   -0.000000
   -4    1    1    2    5   -0.002248   -0.000002
   -4    1    1    3    5   -0.000523   -0.000030
   -4    1    1    4    5    0.000524   -0.000028
   -4    1    1    5    5   -0.000476   -0.000000
   -4    1    1    6    5    0.000001   -0.000157
   -4    1    1    7    5    0.000031   -0.000001
   -4    1    1    8    5   -0.000023    0.000023
   -4    1    1    9    5   -0.000344    0.000344
   -4    1    1   10    5    0.000037    0.000130
   -4    1    1   11    5    0.000130    0.000035
   -4    1    1   12    5    0.000001    0.000031
   -4    1    1   13    5   -0.000172   -0.000003
   -4    1    1   14    5   -0.000002    0.000028
   -4    1    1    1    6   -0.004732   -0.000023
   -4    1    1    2    6   -0.000521    0.000129
   -4    1    1    3    6   -0.002252    0.000342
   -4    1    1    4    6   -0.000521   -0.000042
   -4    1    1    5    6    0.000001    0.000093
   -4    1    1    6    6   -0.001895   -0.000000
   -4    1    1    7    6    0.000001    0.000151
   -4    1    1    8    6   -0.000023    0.000001
   -4    1    1    9    6   -0.000036   -0.000037
   -4    1    1   10    6    0.000344   -0.000002
   -4    1    1   11    6    0.000122    0.000030
   -4    1    1   12    6    0.000151   -0.000001
   -4    1    1   13    6   -0.000000    0.000000
   -4    1    1   14    6    0.000094   -0.000001
   -4    1    1    1    7    0.004732   -0.000022
   -4    1    1    2    7    0.000522    0.000123
   -4    1    1    3    7   -0.000522    0.000038
   -4    1    1    4    7   -0.002248   -0.000341
   -4    1    1    5    7    0.000031    0.000001
   -4    1    1    6    7    0.000001   -0.000174
   -4    1    1    7    7   -0.000476    0.000000
   -4    1    1    8    7    0.000001   -0.000023
   -4    1    1    9    7   -0.000034   -0.000034
   -4    1    1   10    7   -0.000032   -0.000119
   -4    1    1   11    7    0.000003   -0.000340
   -4    1    1   12    7    0.000001   -0.000029
   -4    1    1   13    7   -0.000157   -0.000003
   -4    1    1   14    7   -0.000001   -0.000030
   -4    1    1    1    8    0.000001   -0.000001
   -4    1    1    2    8    0.000013    0.000004
   -4    1    1    3    8    0.000000   -0.000003
   -4    1    1    4    8   -0.000179    0.000004
   -4    1    1    5    8   -0.000153    0.000160
   -4    1    1    6    8   -0.000083   -0.000003
   -4    1    1    7    8   -0.000115   -0.000158
   -4    1    1    8    8    0.000947   -0.000000
   -4    1    1    9    8   -0.000003   -0.000181
   -4    1    1   10    8    0.002558    0.000000
   -4    1    1   11    8    0.000004    0.000017
   -4    1    1   12    8    0.002544   -0.000114
   -4    1    1   13    8    0.003514   -0.000085
   -4    1    1   14    8    0.002549   -0.000149
   -4    1    1    1    9    0.000106   -0.000001
   -4    1    1    2    9   -0.000014    0.000241
   -4    1    1    3    9   -0.000344    0.000006
   -4    1    1    4    9   -0.000004   -0.000201
   -4    1    1    5    9   -0.000153    0.000123
   -4    1    1    6    9    0.000016    0.000202
   -4    1    1    7    9    0.000255    0.000081
   -4    1    1    8    9    0.000001    0.000051
   -4    1    1    9    9    0.000672    0.000001
   -4    1    1   10    9    0.000021   -0.000363
   -4    1    1   11    9   -0.005892   -0.000002
   -4    1    1   12    9   -0.002100   -0.000262
   -4    1    1   13    9   -0.002875    0.000209
   -4    1    1   14    9   -0.001137   -0.000098
   -4    1    1    1   10   -0.000001   -0.000001
   -4    1    1    2   10    0.000223   -0.000015
   -4    1    1    3   10   -0.000002    0.000011
   -4    1    1    4   10    0.000021   -0.000014
   -4    1    1    5   10    0.000037   -0.000224
   -4    1    1    6   10    0.000507    0.000000
   -4    1    1    7   10    0.000061    0.000219
   -4    1    1    8   10    0.000762    0.000000
   -4    1    1    9   10    0.000019    0.000038
   -4    1    1   10   10    0.002079    0.000000
   -4    1    1   11   10   -0.000021    0.000202
   -4    1    1   12   10    0.002111    0.000060
   -4    1    1   13   10   -0.001939    0.000509
   -4    1    1   14   10    0.002113    0.000037
   -4    1    1    1   11    0.000051   -0.000001
   -4    1    1    2   11    0.000020    0.000185
   -4    1    1    3   11   -0.000361   -0.000007
   -4    1    1    4   11    0.000002   -0.000234
   -4    1    1    5   11   -0.000099   -0.000084
   -4    1    1    6   11    0.000209   -0.000203
   -4    1    1    7   11   -0.000260   -0.000124
   -4    1    1    8   11   -0.000001    0.000103
   -4    1    1    9   11   -0.005896    0.000002
   -4    1    1   10   11   -0.000025   -0.000307
   -4    1    1   11   11    0.000687   -0.000001
   -4    1    1   12   11   -0.001134    0.000251
   -4    1    1   13   11   -0.002875    0.000013
   -4    1    1   14   11   -0.002097   -0.000155
   -4    1    1    1   12    0.000023    0.000024
   -4    1    1    2   12    0.000343    0.000347
   -4    1    1    3   12   -0.000040    0.000127
   -4    1    1    4   12   -0.000127    0.000035
   -4    1    1    5   12    0.000001    0.000027
   -4    1    1    6   12    0.000174   -0.000000
   -4    1    1    7   12    0.000001    0.000028
   -4    1    1    8   12    0.004733    0.000000
   -4    1    1    9   12   -0.002254   -0.000001
   -4    1    1   10   12   -0.000525    0.000033
   -4    1    1   11   12    0.000527    0.000034
   -4    1    1   12   12   -0.000478   -0.000000
   -4    1    1   13   12   -0.000001    0.000158
   -4    1    1   14   12    0.000029    0.000000
   -4    1    1    1   13    0.000022    0.000000
   -4    1    1    2   13    0.000036   -0.000034
   -4    1    1    3   13   -0.000341   -0.000001
   -4    1    1    4   13   -0.000125    0.000036
   -4    1    1    5   13   -0.000149    0.000002
   -4    1    1    6   13   -0.000000   -0.000000
   -4    1    1    7   13   -0.000093    0.000002
   -4    1    1    8   13   -0.004733    0.000023
   -4    1    1    9   13   -0.000523   -0.000123
   -4    1    1   10   13   -0.002253   -0.000344
   -4    1    1   11   13   -0.000526    0.000033
   -4    1    1   12   13   -0.000001   -0.000095
   -4    1    1   13   13   -0.001903    0.000000
   -4    1    1   14   13    0.000002   -0.000148
   -4    1    1    1   14    0.000000   -0.000023
   -4    1    1    2   14    0.000033   -0.000029
   -4    1    1    3   14    0.000031   -0.000124
   -4    1    1    4   14    0.000001   -0.000347
   -4    1    1    5   14   -0.000002   -0.000028
   -4    1    1    6   14    0.000158    0.000001
   -4    1    1    7   14   -0.000001   -0.000027
   -4    1    1    8   14    0.004733    0.000023
   -4    1    1    9   14    0.000518   -0.000125
   -4    1    1   10   14   -0.000518   -0.000034
   -4    1    1   11   14   -0.002251    0.000344
   -4    1    1   12   14    0.000029   -0.000000
   -4    1    1   13   14    0.000002    0.000170
   -4    1    1   14   14   -0.000479    0.000000
   -4    1    2    1    1    0.000949   -0.000000
   -4    1    2    2    1   -0.000003   -0.000182
   -4    1    2    3    1   -0.000001   -0.000010
   -4    1    2    4    1   -0.002555   -0.000000
   -4    1    2    5    1   -0.002262   -0.000001
   -4    1    2    6    1   -0.002262   -0.000126
   -4    1    2    7    1    0.002260   -0.000127
   -4    1    2    8    1    0.000001    0.000001
   -4    1    2    9    1   -0.000002    0.000018
   -4    1    2   10    1   -0.000000    0.000183
   -4    1    2   11    1    0.000003    0.000008
   -4    1    2   12    1   -0.000128    0.000131
   -4    1    2   13    1    0.000127    0.000001
   -4    1    2   14    1   -0.000001    0.000132
   -4    1    2    1    2   -0.000000    0.000052
   -4    1    2    2    2    0.000667   -0.000001
   -4    1    2    3    2    0.005908   -0.000006
   -4    1    2    4    2   -0.000021    0.000370
   -4    1    2    5    2    0.000036    0.000000
   -4    1    2    6    2   -0.000925    0.000051
   -4    1    2    7    2    0.000924    0.000050
   -4    1    2    8    2    0.000002    0.000103
   -4    1    2    9    2   -0.000228   -0.000018
   -4    1    2   10    2   -0.000174    0.000017
   -4    1    2   11    2    0.000025    0.000320
   -4    1    2   12    2   -0.000009    0.000008
   -4    1    2   13    2   -0.000012   -0.000138
   -4    1    2   14    2   -0.000138   -0.000012
   -4    1    2    1    3    0.000001   -0.000107
   -4    1    2    2    3    0.005900    0.000006
   -4    1    2    3    3    0.000633    0.000001
   -4    1    2    4    3   -0.000007   -0.000347
   -4    1    2    5    3   -0.000924    0.000137
   -4    1    2    6    3    0.000036   -0.000010
   -4    1    2    7    3    0.000923    0.000013
   -4    1    2    8    3   -0.000001   -0.000051
   -4    1    2    9    3    0.000158   -0.000009
   -4    1    2   10    3    0.000208   -0.000014
   -4    1    2   11    3   -0.000007   -0.000347
   -4    1    2   12    3    0.000012   -0.000049
   -4    1    2   13    3    0.000009   -0.000000
   -4    1    2   14    3    0.000137   -0.000050
   -4    1    2    1    4   -0.000760   -0.000000
   -4    1    2    2    4   -0.000017   -0.000032
   -4    1    2    3    4   -0.000008    0.000232
   -4    1    2    4    4    0.002064    0.000000
   -4    1    2    5    4    0.000924    0.000138
   -4    1    2    6    4    0.000925   -0.000012
   -4    1    2    7    4    0.000035    0.000009
   -4    1    2    8    4    0.000001    0.000002
   -4    1    2    9    4   -0.000005   -0.000197
   -4    1    2   10    4   -0.000006    0.000049
   -4    1    2   11    4    0.000007    0.000017
   -4    1    2   12    4   -0.000050    0.000013
   -4    1    2   13    4    0.000051   -0.000138
   -4    1    2   14    4   -0.000001   -0.000009
   -4    1    2    1    5    0.001502    0.000229
   -4    1    2    2    5   -0.000069   -0.000045
   -4    1    2    3    5    0.001349   -0.000261
   -4    1    2    4    5   -0.001196   -0.000350
   -4    1    2    5    5   -0.000478   -0.000000
   -4    1    2    6    5   -0.000029    0.000001
   -4    1    2    7    5    0.000002   -0.000159
   -4    1    2    8    5   -0.000082    0.000314
   -4    1    2    9    5   -0.000117   -0.000142
   -4    1    2   10    5   -0.000095   -0.000122
   -4    1    2   11    5    0.000127   -0.000360
   -4    1    2   12    5   -0.000028    0.000001
   -4    1    2   13    5    0.000026   -0.000001
   -4    1    2   14    5   -0.000002   -0.000171
   -4    1    2    1    6    0.001502   -0.000314
   -4    1    2    2    6    0.001345    0.000123
   -4    1    2    3    6   -0.000072    0.000147
   -4    1    2    4    6   -0.001195    0.000354
   -4    1    2    5    6   -0.000029   -0.000001
   -4    1    2    6    6   -0.000475    0.000000
   -4    1    2    7    6    0.000000    0.000174
   -4    1    2    8    6    0.000082   -0.000229
   -4    1    2    9    6    0.000095    0.000255
   -4    1    2   10    6    0.000117    0.000045
   -4    1    2   11    6   -0.000128    0.000354
   -4    1    2   12    6   -0.000025    0.000002
   -4    1    2   13    6    0.000028   -0.000000
   -4    1    2   14    6    0.000001    0.000157
   -4    1    2    1    7   -0.003083    0.000027
   -4    1    2    2    7    0.000553   -0.000250
   -4    1    2    3    7    0.000552    0.000145
   -4    1    2    4    7    0.002060   -0.000070
   -4    1    2    5    7    0.000002    0.000094
   -4    1    2    6    7    0.000000   -0.000150
   -4    1    2    7    7   -0.001900    0.000000
   -4    1    2    8    7    0.000000   -0.000027
   -4    1    2    9    7    0.000083   -0.000145
   -4    1    2   10    7   -0.000084    0.000252
   -4    1    2   11    7    0.000001    0.000074
   -4    1    2   12    7    0.000000    0.000148
   -4    1    2   13    7    0.000001   -0.000096
   -4    1    2   14    7   -0.000001   -0.000000
   -4    1    2    1    8    0.000001   -0.000000
   -4    1    2    2    8    0.000004    0.000015
   -4    1    2    3    8   -0.000001    0.000178
   -4    1    2    4    8    0.000003   -0.000008
   -4    1    2    5    8    0.000127    0.000126
   -4    1    2    6    8   -0.000126   -0.000001
   -4    1    2    7    8    0.000000    0.000125
   -4    1    2    8    8    0.000945   -0.000000
   -4    1    2    9    8    0.000002    0.000180
   -4    1    2   10    8   -0.000003    0.000018
   -4    1    2   11    8   -0.002553    0.000000
   -4    1    2   12    8   -0.002263   -0.000000
   -4    1    2   13    8   -0.002257    0.000128
   -4    1    2   14    8    0.002264    0.000128
   -4    1    2    1    9   -0.000001    0.000104
   -4    1    2    2    9    0.000194    0.000025
   -4    1    2    3    9    0.000155    0.000012
   -4    1    2    4    9   -0.000006    0.000301
   -4    1    2    5    9    0.000009    0.000009
   -4    1    2    6    9    0.000013   -0.000141
   -4    1    2    7    9    0.000138   -0.000012
   -4    1    2    8    9    0.000002   -0.000050
   -4    1    2    9    9    0.000677   -0.000002
   -4    1    2   10    9    0.005927   -0.000009
   -4    1    2   11    9    0.000019   -0.000355
   -4    1    2   12    9    0.000037    0.000000
   -4    1    2   13    9   -0.000922   -0.000050
   -4    1    2   14    9    0.000925   -0.000050
   -4    1    2    1   10   -0.000000   -0.000050
   -4    1    2    2   10   -0.000171   -0.000019
   -4    1    2    3   10   -0.000214    0.000006
   -4    1    2    4   10   -0.000003   -0.000377
   -4    1    2    5   10   -0.000013   -0.000051
   -4    1    2    6   10   -0.000010    0.000000
   -4    1    2    7   10   -0.000138   -0.000051
   -4    1    2    8   10   -0.000001    0.000103
   -4    1    2    9   10    0.005929    0.000009
   -4    1    2   10   10    0.000683    0.000002
   -4    1    2   11   10   -0.000027    0.000306
   -4    1    2   12   10   -0.000924   -0.000140
   -4    1    2   13   10    0.000037    0.000009
   -4    1    2   14   10    0.000924   -0.000013
   -4    1    2    1   11    0.000001   -0.000002
   -4    1    2    2   11    0.000018   -0.000215
   -4    1    2    3   11   -0.000000    0.000024
   -4    1    2    4   11    0.000006   -0.000017
   -4    1    2    5   11    0.000051    0.000012
   -4    1    2    6   11   -0.000052   -0.000141
   -4    1    2    7   11   -0.000000   -0.000008
   -4    1    2    8   11   -0.000761    0.000000
   -4    1    2    9   11    0.000012    0.000033
   -4    1    2   10   11   -0.000018   -0.000204
   -4    1    2   11   11    0.002084   -0.000000
   -4    1    2   12   11    0.000926   -0.000140
   -4    1    2   13   11    0.000923    0.000013
   -4    1    2   14   11    0.000037   -0.000009
   -4    1    2    1   12    0.000082    0.000315
   -4    1    2    2   12    0.000115   -0.000146
   -4    1    2    3   12    0.000092   -0.000117
   -4    1    2    4   12   -0.000128   -0.000360
   -4    1    2    5   12    0.000029   -0.000001
   -4    1    2    6   12   -0.000025   -0.000002
   -4    1    2    7   12    0.000000   -0.000170
   -4    1    2    8   12    0.001500   -0.000229
   -4    1    2    9   12   -0.000073    0.000043
   -4    1    2   10   12    0.001346    0.000255
   -4    1    2   11   12   -0.001193    0.000356
   -4    1    2   12   12   -0.000478   -0.000000
   -4    1    2   13   12   -0.000030    0.000001
   -4    1    2   14   12   -0.000002    0.000157
   -4    1    2    1   13   -0.000081   -0.000228
   -4    1    2    2   13   -0.000094    0.000257
   -4    1    2    3   13   -0.000114    0.000041
   -4    1    2    4   13    0.000126    0.000355
   -4    1    2    5   13    0.000027    0.000001
   -4    1    2    6   13   -0.000029   -0.000000
   -4    1    2    7   13    0.000000    0.000159
   -4    1    2    8   13    0.001500    0.000315
   -4    1    2    9   13    0.001347   -0.000119
   -4    1    2   10   13   -0.000068   -0.000144
   -4    1    2   11   13   -0.001194   -0.000361
   -4    1    2   12   13   -0.000030   -0.000001
   -4    1    2   13   13   -0.000478    0.000000
   -4    1    2   14   13    0.000003   -0.000170
   -4    1    2    1   14    0.000001   -0.000026
   -4    1    2    2   14   -0.000084   -0.000146
   -4    1    2    3   14    0.000084    0.000252
   -4    1    2    4   14    0.000001    0.000067
   -4    1    2    5   14   -0.000002    0.000149
   -4    1    2    6   14    0.000001   -0.000094
   -4    1    2    7   14   -0.000001    0.000000
   -4    1    2    8   14   -0.003086   -0.000027
   -4    1    2    9   14    0.000553    0.000253
   -4    1    2   10   14    0.000555   -0.000147
   -4    1    2   11   14    0.002059    0.000070
   -4    1    2   12   14   -0.000002   -0.000095
   -4    1    2   13   14    0.000003    0.000148
   -4    1    2   14   14   -0.001901   -0.000000
   -4    2    0    1    1   -0.004473    0.000000
   -4    2    0    2    1    0.003437   -0.000000
   -4    2    0    3    1   -0.003435   -0.000234
   -4    2    0    4    1   -0.003439    0.000234
   -4    2    0    5    1    0.000932   -0.000000
   -4    2    0    6    1   -0.000119    0.000150
   -4    2    0    7    1   -0.000118   -0.000150
   -4    2    0    8    1   -0.000001   -0.000000
   -4    2    0    9    1    0.000232    0.000234
   -4    2    0   10    1    0.000236    0.000002
   -4    2    0   11    1   -0.000003    0.000232
   -4    2    0   12    1   -0.000166   -0.000162
   -4    2    0   13    1    0.000106    0.000112
   -4    2    0   14    1    0.000109    0.000105
   -4    2    0    1    2    0.003919   -0.000000
   -4    2    0    2    2    0.001666   -0.000000
   -4    2    0    3    2    0.001866   -0.000187
   -4    2    0    4    2    0.001852    0.000194
   -4    2    0    5    2    0.000616   -0.000000
   -4    2    0    6    2    0.002804   -0.000113
   -4    2    0    7    2    0.002799    0.000112
   -4    2    0    8    2    0.000049    0.000048
   -4    2    0    9    2   -0.000189   -0.000196
   -4    2    0   10    2   -0.000046    0.000157
   -4    2    0   11    2    0.000162   -0.000051
   -4    2    0   12    2    0.000019    0.000018
   -4    2    0   13    2   -0.000118    0.000065
   -4    2    0   14    2    0.000064   -0.000119
   -4    2    0    1    3   -0.003915   -0.000050
   -4    2    0    2    3    0.001866    0.000149
   -4    2    0    3    3    0.001636   -0.000177
   -4    2    0    4    3   -0.001873    0.000034
   -4    2    0    5    3    0.000324   -0.000187
   -4    2    0    6    3   -0.001493    0.000364
   -4    2    0    7    3    0.002655    0.000023
   -4    2    0    8    3    0.000050   -0.000001
   -4    2    0    9    3    0.000038   -0.000182
   -4    2    0   10    3    0.000175   -0.000008
   -4    2    0   11    3    0.000139   -0.000173
   -4    2    0   12    3   -0.000056    0.000211
   -4    2    0   13    3    0.000284   -0.000123
   -4    2    0   14    3   -0.000020   -0.000143
   -4    2    0    1    4   -0.003918    0.000050
   -4    2    0    2    4    0.001852   -0.000156
   -4    2    0    3    4   -0.001873   -0.000034
   -4    2    0    4    4    0.001667    0.000176
   -4    2    0    5    4    0.000323    0.000187
   -4    2    0    6    4    0.002653   -0.000023
   -4    2    0    7    4   -0.001497   -0.000365
   -4    2    0    8    4   -0.000000    0.000050
   -4    2    0    9    4   -0.000188    0.000065
   -4    2    0   10    4   -0.000181    0.000156
   -4    2    0   11    4    0.000004    0.000191
   -4    2    0   12    4    0.000211   -0.000058
   -4    2    0   13    4   -0.000145   -0.000022
   -4    2    0   14    4   -0.000126    0.000281
   -4    2    0    1    5   -0.003083   -0.000000
   -4    2    0    2    5    0.002061   -0.000000
   -4    2    0    3    5   -0.000554    0.000085
   -4    2    0    4    5   -0.000553   -0.000085
   -4    2    0    5    5    0.001099   -0.000000
   -4    2    0    6    5    0.000187    0.000042
   -4    2    0    7    5    0.000191   -0.000043
   -4    2    0    8    5   -0.000027   -0.000027
   -4    2    0    9    5    0.000069    0.000070
   -4    2    0   10    5    0.000148   -0.000253
   -4    2    0   11    5   -0.000252    0.000148
   -4    2    0   12    5   -0.000022   -0.000021
   -4    2    0   13    5   -0.000089    0.000079
   -4    2    0   14    5    0.000078   -0.000088
   -4    2    0    1    6   -0.001500   -0.000081
   -4    2    0    2    6    0.001196    0.000127
   -4    2    0    3    6   -0.000068    0.000114
   -4    2    0    4    6    0.001345    0.000094
   -4    2    0    5    6    0.000189    0.000079
   -4    2    0    6    6    0.001102   -0.000024
   -4    2    0    7    6   -0.000188    0.000091
   -4    2    0    8    6   -0.000314    0.000229
   -4    2    0    9    6    0.000359   -0.000359
   -4    2    0   10    6   -0.000148    0.000041
   -4    2    0   11    6   -0.000119    0.000254
   -4    2    0   12    6    0.000091    0.000041
   -4    2    0   13    6    0.000023    0.000001
   -4    2    0   14    6    0.000080    0.000039
   -4    2    0    1    7   -0.001500    0.000082
   -4    2    0    2    7    0.001196   -0.000128
   -4    2    0    3    7    0.001348   -0.000093
   -4    2    0    4    7   -0.000067   -0.000115
   -4    2    0    5    7    0.000191   -0.000078
   -4    2    0    6    7   -0.000186   -0.000091
   -4    2    0    7    7    0.001099    0.000024
   -4    2    0    8    7    0.000229   -0.000314
   -4    2    0    9    7   -0.000355    0.000362
   -4    2    0   10    7    0.000259   -0.000115
   -4    2    0   11    7    0.000045   -0.000145
   -4    2    0   12    7    0.000042    0.000087
   -4    2    0   13    7    0.000042    0.000078
   -4    2    0   14    7    0.000000    0.000021
   -4    2    0    1    8   -0.000000    0.000000
   -4    2    0    2    8   -0.000237    0.000236
   -4    2    0    3    8   -0.000234   -0.000002
   -4    2    0    4    8   -0.000002    0.000238
   -4    2    0    5    8    0.000163   -0.000167
   -4    2    0    6    8   -0.000105    0.000110
   -4    2    0    7    8   -0.000112    0.000106
   -4    2    0    8    8   -0.004476   -0.000000
   -4    2    0    9    8    0.003435    0.000000
   -4    2    0   10    8   -0.003437    0.000236
   -4    2    0   11    8   -0.003438   -0.000236
   -4    2    0   12    8    0.000935    0.000000
   -4    2    0   13    8   -0.000118   -0.000155
   -4    2    0   14    8   -0.000118    0.000155
   -4    2    0    1    9   -0.000050    0.000054
   -4    2    0    2    9    0.000164   -0.000155
   -4    2    0    3    9    0.000037    0.000142
   -4    2    0    4    9   -0.000148   -0.000064
   -4    2    0    5    9   -0.000020    0.000023
   -4    2    0    6    9    0.000116    0.000065
   -4    2    0    7    9   -0.000063   -0.000115
   -4    2    0    8    9    0.003918    0.000001
   -4    2    0    9    9    0.001672   -0.000000
   -4    2    0   10    9    0.001885    0.000172
   -4    2    0   11    9    0.001882   -0.000183
   -4    2    0   12    9    0.000611    0.000001
   -4    2    0   13    9    0.002800    0.000110
   -4    2    0   14    9    0.002799   -0.000109
   -4    2    0    1   10   -0.000051    0.000000
   -4    2    0    2   10   -0.000046   -0.000197
   -4    2    0    3   10   -0.000177    0.000008
   -4    2    0    4   10   -0.000144   -0.000195
   -4    2    0    5   10    0.000055    0.000212
   -4    2    0    6   10   -0.000285   -0.000123
   -4    2    0    7   10    0.000023   -0.000148
   -4    2    0    8   10   -0.003917    0.000052
   -4    2    0    9   10    0.001885   -0.000133
   -4    2    0   10   10    0.001676    0.000175
   -4    2    0   11   10   -0.001886   -0.000065
   -4    2    0   12   10    0.000324    0.000191
   -4    2    0   13   10   -0.001493   -0.000360
   -4    2    0   14   10    0.002652   -0.000021
   -4    2    0    1   11    0.000001    0.000053
   -4    2    0    2   11    0.000200    0.000052
   -4    2    0    3   11    0.000178    0.000133
   -4    2    0    4   11    0.000003    0.000160
   -4    2    0    5   11   -0.000210   -0.000055
   -4    2    0    6   11    0.000145   -0.000021
   -4    2    0    7   11    0.000126    0.000285
   -4    2    0    8   11   -0.003918   -0.000052
   -4    2    0    9   11    0.001881    0.000142
   -4    2    0   10   11   -0.001886    0.000065
   -4    2    0   11   11    0.001683   -0.000176
   -4    2    0   12   11    0.000323   -0.000190
   -4    2    0   13   11    0.002652    0.000021
   -4    2    0   14   11   -0.001494    0.000361
   -4    2    0    1   12    0.000028   -0.000027
   -4    2    0    2   12   -0.000071    0.000070
   -4    2    0    3   12   -0.000148   -0.000254
   -4    2    0    4   12    0.000251    0.000149
   -4    2    0    5   12    0.000025   -0.000025
   -4    2    0    6   12    0.000092    0.000081
   -4    2    0    7   12   -0.000079   -0.000089
   -4    2    0    8   12   -0.003084    0.000000
   -4    2    0    9   12    0.002054   -0.000000
   -4    2    0   10   12   -0.000552   -0.000080
   -4    2    0   11   12   -0.000552    0.000079
   -4    2    0   12   12    0.001097    0.000000
   -4    2    0   13   12    0.000186   -0.000041
   -4    2    0   14   12    0.000187    0.000042
   -4    2    0    1   13    0.000314    0.000229
   -4    2    0    2   13   -0.000358   -0.000357
   -4    2    0    3   13    0.000145    0.000044
   -4    2    0    4   13    0.000119    0.000257
   -4    2    0    5   13   -0.000089    0.000045
   -4    2    0    6   13   -0.000023   -0.000001
   -4    2    0    7   13   -0.000080    0.000046
   -4    2    0    8   13   -0.001502    0.000081
   -4    2    0    9   13    0.001195   -0.000124
   -4    2    0   10   13   -0.000072   -0.000117
   -4    2    0   11   13    0.001348   -0.000095
   -4    2    0   12   13    0.000186   -0.000081
   -4    2    0   13   13    0.001096    0.000021
   -4    2    0   14   13   -0.000186   -0.000088
   -4    2    0    1   14   -0.000230   -0.000314
   -4    2    0    2   14    0.000356    0.000363
   -4    2    0    3   14   -0.000258   -0.000120
   -4    2    0    4   14   -0.000042   -0.000145
   -4    2    0    5   14   -0.000045    0.000091
   -4    2    0    6   14   -0.000042    0.000082
   -4    2    0    7   14   -0.000001    0.000023
   -4    2    0    8   14   -0.001502   -0.000082
   -4    2    0    9   14    0.001195    0.000124
   -4    2    0   10   14    0.001349    0.000094
   -4    2    0   11   14   -0.000072    0.000117
   -4    2    0   12   14    0.000186    0.000081
   -4    2    0   13   14   -0.000185    0.000088
   -4    2    0   14   14    0.001096   -0.000022
   -4    2    1    1    1    0.000949   -0.000000
   -4    2    1    2    1   -0.002556   -0.000000
   -4    2    1    3    1   -0.000001   -0.000001
   -4    2    1    4    1   -0.000003    0.000002
   -4    2    1    5    1    0.002260    0.000000
   -4    2    1    6    1   -0.002263    0.000126
   -4    2    1    7    1   -0.002262   -0.000126
   -4    2    1    8    1    0.000000   -0.000000
   -4    2    1    9    1   -0.000005   -0.000006
   -4    2    1   10    1   -0.000013   -0.000176
   -4    2    1   11    1   -0.000176   -0.000015
   -4    2    1   12    1   -0.000127   -0.000126
   -4    2    1   13    1   -0.000126    0.000002
   -4    2    1   14    1   -0.000001   -0.000128
   -4    2    1    1    2   -0.000761   -0.000000
   -4    2    1    2    2    0.002062    0.000000
   -4    2    1    3    2   -0.000004   -0.000001
   -4    2    1    4    2   -0.000016    0.000010
   -4    2    1    5    2    0.000036    0.000000
   -4    2    1    6    2    0.000925    0.000049
   -4    2    1    7    2    0.000924   -0.000050
   -4    2    1    8    2   -0.000001   -0.000002
   -4    2    1    9    2   -0.000016   -0.000024
   -4    2    1   10    2    0.000227   -0.000010
   -4    2    1   11    2   -0.000005    0.000221
   -4    2    1   12    2    0.000009    0.000009
   -4    2    1   13    2   -0.000015    0.000139
   -4    2    1   14    2    0.000138   -0.000015
   -4    2    1    1    3    0.000001    0.000001
   -4    2    1    2    3   -0.000002    0.000007
   -4    2    1    3    3    0.000632    0.000208
   -4    2    1    4    3    0.005896    0.000155
   -4    2    1    5    3    0.000923    0.000138
   -4    2    1    6    3    0.000036    0.000009
   -4    2    1    7    3   -0.000924    0.000014
   -4    2    1    8    3   -0.000106    0.000048
   -4    2    1    9    3   -0.000344    0.000346
   -4    2    1   10    3   -0.000003   -0.000011
   -4    2    1   11    3   -0.000005    0.000005
   -4    2    1   12    3    0.000013    0.000050
   -4    2    1   13    3   -0.000009   -0.000000
   -4    2    1   14    3    0.000138    0.000050
   -4    2    1    1    4    0.000000   -0.000002
   -4    2    1    2    4   -0.000021   -0.000015
   -4    2    1    3    4    0.005904   -0.000156
   -4    2    1    4    4    0.000669   -0.000208
   -4    2    1    5    4    0.000923   -0.000138
   -4    2    1    6    4   -0.000925   -0.000014
   -4    2    1    7    4    0.000036   -0.000009
   -4    2    1    8    4    0.000049   -0.000104
   -4    2    1    9    4    0.000348   -0.000300
   -4    2    1   10    4    0.000000    0.000027
   -4    2    1   11    4    0.000006    0.000023
   -4    2    1   12    4    0.000051    0.000016
   -4    2    1   13    4    0.000049    0.000141
   -4    2    1   14    4   -0.000000   -0.000009
   -4    2    1    1    5   -0.003083   -0.000000
   -4    2    1    2    5    0.002060    0.000000
   -4    2    1    3    5    0.000552   -0.000082
   -4    2    1    4    5    0.000553    0.000082
   -4    2    1    5    5   -0.001900   -0.000000
   -4    2    1    6    5   -0.000000   -0.000000
   -4    2    1    7    5    0.000002   -0.000001
   -4    2    1    8    5    0.000028    0.000027
   -4    2    1    9    5   -0.000071   -0.000069
   -4    2    1   10    5    0.000148   -0.000254
   -4    2    1   11    5   -0.000252    0.000151
   -4    2    1   12    5    0.000001    0.000003
   -4    2    1   13    5   -0.000150    0.000093
   -4    2    1   14    5    0.000092   -0.000150
   -4    2    1    1    6    0.001502    0.000082
   -4    2    1    2    6   -0.001195   -0.000123
   -4    2    1    3    6   -0.000072    0.000114
   -4    2    1    4    6    0.001345    0.000090
   -4    2    1    5    6   -0.000000   -0.000001
   -4    2    1    6    6   -0.000475    0.000028
   -4    2    1    7    6   -0.000029   -0.000025
   -4    2    1    8    6   -0.000314    0.000228
   -4    2    1    9    6    0.000358   -0.000357
   -4    2    1   10    6    0.000147   -0.000044
   -4    2    1   11    6    0.000119   -0.000258
   -4    2    1   12    6    0.000174   -0.000156
   -4    2    1   13    6    0.000001    0.000002
   -4    2    1   14    6   -0.000000   -0.000000
   -4    2    1    1    7    0.001502   -0.000082
   -4    2    1    2    7   -0.001196    0.000122
   -4    2    1    3    7    0.001349   -0.000091
   -4    2    1    4    7   -0.000068   -0.000114
   -4    2    1    5    7    0.000002    0.000001
   -4    2    1    6    7   -0.000029    0.000025
   -4    2    1    7    7   -0.000478   -0.000028
   -4    2    1    8    7    0.000229   -0.000315
   -4    2    1    9    7   -0.000355    0.000363
   -4    2    1   10    7   -0.000257    0.000120
   -4    2    1   11    7   -0.000044    0.000148
   -4    2    1   12    7   -0.000157    0.000170
   -4    2    1   13    7   -0.000000   -0.000002
   -4    2    1   14    7    0.000000   -0.000001
   -4    2    1    1    8    0.000000    0.000000
   -4    2    1    2    8   -0.000005    0.000006
   -4    2    1    3    8    0.000011   -0.000178
   -4    2    1    4    8    0.000178   -0.000018
   -4    2    1    5    8    0.000125   -0.000129
   -4    2    1    6    8    0.000128   -0.000001
   -4    2    1    7    8   -0.000003   -0.000128
   -4    2    1    8    8    0.000947   -0.000000
   -4    2    1    9    8   -0.002560    0.000000
   -4    2    1   10    8    0.000003   -0.000001
   -4    2    1   11    8    0.000003   -0.000000
   -4    2    1   12    8    0.002260   -0.000001
   -4    2    1   13    8   -0.002261   -0.000129
   -4    2    1   14    8   -0.002261    0.000128
   -4    2    1    1    9   -0.000001    0.000002
   -4    2    1    2    9   -0.000015    0.000024
   -4    2    1    3    9   -0.000237   -0.000025
   -4    2    1    4    9    0.000017    0.000204
   -4    2    1    5    9   -0.000009    0.000009
   -4    2    1    6    9    0.000013    0.000141
   -4    2    1    7    9   -0.000138   -0.000014
   -4    2    1    8    9   -0.000763    0.000000
   -4    2    1    9    9    0.002073   -0.000000
   -4    2    1   10    9    0.000019   -0.000008
   -4    2    1   11    9    0.000015   -0.000004
   -4    2    1   12    9    0.000036   -0.000000
   -4    2    1   13    9    0.000923   -0.000049
   -4    2    1   14    9    0.000923    0.000050
   -4    2    1    1   10    0.000105    0.000049
   -4    2    1    2   10    0.000329    0.000329
   -4    2    1    3   10   -0.000003    0.000007
   -4    2    1    4   10   -0.000002   -0.000021
   -4    2    1    5   10   -0.000014    0.000048
   -4    2    1    6   10    0.000009    0.000000
   -4    2    1    7   10   -0.000139    0.000048
   -4    2    1    8   10   -0.000001    0.000001
   -4    2    1    9   10    0.000022    0.000009
   -4    2    1   10   10    0.000677   -0.000217
   -4    2    1   11   10    0.005887   -0.000192
   -4    2    1   12   10    0.000923   -0.000140
   -4    2    1   13   10    0.000036   -0.000008
   -4    2    1   14   10   -0.000924   -0.000013
   -4    2    1    1   11   -0.000048   -0.000102
   -4    2    1    2   11   -0.000329   -0.000320
   -4    2    1    3   11   -0.000003   -0.000011
   -4    2    1    4   11    0.000006   -0.000019
   -4    2    1    5   11   -0.000050    0.000013
   -4    2    1    6   11   -0.000049    0.000140
   -4    2    1    7   11    0.000000   -0.000008
   -4    2    1    8   11   -0.000001   -0.000000
   -4    2    1    9   11    0.000017    0.000002
   -4    2    1   10   11    0.005889    0.000192
   -4    2    1   11   11    0.000686    0.000217
   -4    2    1   12   11    0.000923    0.000140
   -4    2    1   13   11   -0.000924    0.000013
   -4    2    1   14   11    0.000036    0.000009
   -4    2    1    1   12   -0.000027    0.000027
   -4    2    1    2   12    0.000069   -0.000070
   -4    2    1    3   12   -0.000148   -0.000256
   -4    2    1    4   12    0.000251    0.000149
   -4    2    1    5   12    0.000001   -0.000003
   -4    2    1    6   12    0.000151    0.000094
   -4    2    1    7   12   -0.000094   -0.000148
   -4    2    1    8   12   -0.003084   -0.000000
   -4    2    1    9   12    0.002055   -0.000000
   -4    2    1   10   12    0.000554    0.000080
   -4    2    1   11   12    0.000554   -0.000081
   -4    2    1   12   12   -0.001903    0.000000
   -4    2    1   13   12   -0.000002    0.000001
   -4    2    1   14   12   -0.000001    0.000000
   -4    2    1    1   13    0.000314    0.000230
   -4    2    1    2   13   -0.000359   -0.000359
   -4    2    1    3   13   -0.000146   -0.000044
   -4    2    1    4   13   -0.000119   -0.000255
   -4    2    1    5   13   -0.000172   -0.000155
   -4    2    1    6   13    0.000000   -0.000002
   -4    2    1    7   13   -0.000001    0.000002
   -4    2    1    8   13    0.001500   -0.000082
   -4    2    1    9   13   -0.001196    0.000126
   -4    2    1   10   13   -0.000069   -0.000117
   -4    2    1   11   13    0.001347   -0.000095
   -4    2    1   12   13   -0.000002   -0.000001
   -4    2    1   13   13   -0.000478   -0.000028
   -4    2    1   14   13   -0.000029    0.000029
   -4    2    1    1   14   -0.000230   -0.000313
   -4    2    1    2   14    0.000356    0.000362
   -4    2    1    3   14    0.000259    0.000117
   -4    2    1    4   14    0.000043    0.000144
   -4    2    1    5   14    0.000155    0.000172
   -4    2    1    6   14    0.000000    0.000000
   -4    2    1    7   14   -0.000000    0.000001
   -4    2    1    8   14    0.001500    0.000081
   -4    2    1    9   14   -0.001196   -0.000125
   -4    2    1   10   14    0.001348    0.000096
   -4    2    1   11   14   -0.000067    0.000117
   -4    2    1   12   14   -0.000001   -0.000000
   -4    2    1   13   14   -0.000029   -0.000028
   -4    2    1   14   14   -0.000479    0.000029
   -4    2    2    1    1   -0.004475   -0.000000
   -4    2    2    2    1    0.003439   -0.000000
   -4    2    2    3    1    0.003432    0.000235
   -4    2    2    4    1    0.003440   -0.000235
   -4    2    2    5    1    0.002262   -0.000000
   -4    2    2    6    1    0.002259   -0.000127
   -4    2    2    7    1    0.002263    0.000127
   -4    2    2    8    1   -0.000000    0.000002
   -4    2    2    9    1   -0.000237   -0.000237
   -4    2    2   10    1    0.000236   -0.000002
   -4    2    2   11    1    0.000000    0.000239
   -4    2    2   12    1    0.000125    0.000127
   -4    2    2   13    1   -0.000125    0.000001
   -4    2    2   14    1    0.000000   -0.000127
   -4    2    2    1    2    0.003917    0.000000
   -4    2    2    2    2    0.001665    0.000000
   -4    2    2    3    2   -0.001871    0.000182
   -4    2    2    4    2   -0.001881   -0.000175
   -4    2    2    5    2    0.000036   -0.000000
   -4    2    2    6    2   -0.000923   -0.000052
   -4    2    2    7    2   -0.000925    0.000051
   -4    2    2    8    2   -0.000050   -0.000052
   -4    2    2    9    2    0.000163    0.000157
   -4    2    2   10    2   -0.000046    0.000157
   -4    2    2   11    2    0.000160   -0.000052
   -4    2    2   12    2   -0.000010   -0.000009
   -4    2    2   13    2   -0.000015    0.000140
   -4    2    2   14    2    0.000139   -0.000014
   -4    2    2    1    3    0.003917    0.000051
   -4    2    2    2    3   -0.001872   -0.000143
   -4    2    2    3    3    0.001640   -0.000176
   -4    2    2    4    3   -0.001875    0.000040
   -4    2    2    5    3   -0.000923   -0.000137
   -4    2    2    6    3    0.000036    0.000009
   -4    2    2    7    3   -0.000923    0.000012
   -4    2    2    8    3    0.000049   -0.000001
   -4    2    2    9    3    0.000036   -0.000187
   -4    2    2   10    3   -0.000178   -0.000009
   -4    2    2   11    3   -0.000146    0.000184
   -4    2    2   12    3    0.000014    0.000050
   -4    2    2   13    3    0.000009    0.000000
   -4    2    2   14    3   -0.000138   -0.000049
   -4    2    2    1    4    0.003917   -0.000051
   -4    2    2    2    4   -0.001881    0.000136
   -4    2    2    3    4   -0.001874   -0.000040
   -4    2    2    4    4    0.001667    0.000176
   -4    2    2    5    4   -0.000925    0.000138
   -4    2    2    6    4   -0.000924   -0.000012
   -4    2    2    7    4    0.000035   -0.000009
   -4    2    2    8    4    0.000000    0.000053
   -4    2    2    9    4   -0.000188    0.000070
   -4    2    2   10    4    0.000179   -0.000120
   -4    2    2   11    4    0.000006   -0.000160
   -4    2    2   12    4    0.000051    0.000012
   -4    2    2   13    4   -0.000050   -0.000141
   -4    2    2   14    4   -0.000000    0.000008
   -4    2    2    1    5   -0.000821   -0.000000
   -4    2    2    2    5    0.002325   -0.000000
   -4    2    2    3    5   -0.000055    0.000114
   -4    2    2    4    5   -0.000055   -0.000115
   -4    2    2    5    5    0.001099    0.000000
   -4    2    2    6    5   -0.000187   -0.000043
   -4    2    2    7    5   -0.000187    0.000042
   -4    2    2    8    5    0.000006    0.000005
   -4    2    2    9    5    0.000055    0.000058
   -4    2    2   10    5   -0.000063   -0.000035
   -4    2    2   11    5   -0.000037   -0.000063
   -4    2    2   12    5    0.000025    0.000025
   -4    2    2   13    5   -0.000090    0.000079
   -4    2    2   14    5    0.000077   -0.000090
   -4    2    2    1    6   -0.000822   -0.000006
   -4    2    2    2    6   -0.000055    0.000038
   -4    2    2    3    6    0.002322   -0.000056
   -4    2    2    4    6   -0.000055    0.000061
   -4    2    2    5    6   -0.000189   -0.000080
   -4    2    2    6    6    0.001101   -0.000023
   -4    2    2    7    6   -0.000188    0.000090
   -4    2    2    8    6   -0.000006   -0.000001
   -4    2    2    9    6    0.000063   -0.000117
   -4    2    2   10    6   -0.000055    0.000001
   -4    2    2   11    6    0.000036    0.000118
   -4    2    2   12    6    0.000091    0.000044
   -4    2    2   13    6   -0.000022    0.000000
   -4    2    2   14    6   -0.000081   -0.000044
   -4    2    2    1    7   -0.000821    0.000006
   -4    2    2    2    7   -0.000055   -0.000038
   -4    2    2    3    7   -0.000055   -0.000061
   -4    2    2    4    7    0.002325    0.000056
   -4    2    2    5    7   -0.000187    0.000081
   -4    2    2    6    7   -0.000187   -0.000090
   -4    2    2    7    7    0.001098    0.000023
   -4    2    2    8    7    0.000000   -0.000007
   -4    2    2    9    7   -0.000117    0.000063
   -4    2    2   10    7    0.000116    0.000034
   -4    2    2   11    7    0.000000   -0.000054
   -4    2    2   12    7    0.000043    0.000088
   -4    2    2   13    7   -0.000042   -0.000083
   -4    2    2   14    7   -0.000001   -0.000022
   -4    2    2    1    8   -0.000000   -0.000002
   -4    2    2    2    8    0.000232   -0.000233
   -4    2    2    3    8   -0.000233    0.000001
   -4    2    2    4    8    0.000001    0.000232
   -4    2    2    5    8   -0.000127    0.000127
   -4    2    2    6    8    0.000128    0.000001
   -4    2    2    7    8   -0.000001   -0.000129
   -4    2    2    8    8   -0.004472   -0.000000
   -4    2    2    9    8    0.003432   -0.000000
   -4    2    2   10    8    0.003439   -0.000235
   -4    2    2   11    8    0.003441    0.000236
   -4    2    2   12    8    0.002256    0.000001
   -4    2    2   13    8    0.002263    0.000128
   -4    2    2   14    8    0.002264   -0.000128
   -4    2    2    1    9    0.000049   -0.000050
   -4    2    2    2    9   -0.000188    0.000195
   -4    2    2    3    9    0.000035    0.000146
   -4    2    2    4    9   -0.000149   -0.000068
   -4    2    2    5    9    0.000010   -0.000009
   -4    2    2    6    9    0.000014    0.000139
   -4    2    2    7    9   -0.000137   -0.000014
   -4    2    2    8    9    0.003920   -0.000000
   -4    2    2    9    9    0.001675   -0.000001
   -4    2    2   10    9   -0.001854   -0.000186
   -4    2    2   11    9   -0.001857    0.000176
   -4    2    2   12    9    0.000037    0.000000
   -4    2    2   13    9   -0.000923    0.000049
   -4    2    2   14    9   -0.000924   -0.000049
   -4    2    2    1   10   -0.000051   -0.000001
   -4    2    2    2   10   -0.000046   -0.000197
   -4    2    2    3   10    0.000173    0.000008
   -4    2    2    4   10    0.000141    0.000160
   -4    2    2    5   10   -0.000014    0.000050
   -4    2    2    6   10   -0.000009    0.000000
   -4    2    2    7   10    0.000138   -0.000049
   -4    2    2    8   10    0.003917   -0.000052
   -4    2    2    9   10   -0.001853    0.000146
   -4    2    2   10   10    0.001675    0.000176
   -4    2    2   11   10   -0.001885   -0.000063
   -4    2    2   12   10   -0.000922    0.000140
   -4    2    2   13   10    0.000037   -0.000009
   -4    2    2   14   10   -0.000926   -0.000014
   -4    2    2    1   11    0.000001    0.000051
   -4    2    2    2   11    0.000199    0.000052
   -4    2    2    3   11   -0.000184   -0.000145
   -4    2    2    4   11    0.000006   -0.000190
   -4    2    2    5   11   -0.000050    0.000014
   -4    2    2    6   11    0.000048   -0.000139
   -4    2    2    7   11   -0.000001    0.000009
   -4    2    2    8   11    0.003917    0.000052
   -4    2    2    9   11   -0.001856   -0.000136
   -4    2    2   10   11   -0.001884    0.000063
   -4    2    2   11   11    0.001681   -0.000176
   -4    2    2   12   11   -0.000923   -0.000140
   -4    2    2   13   11   -0.000926    0.000013
   -4    2    2   14   11    0.000037    0.000008
   -4    2    2    1   12   -0.000007    0.000007
   -4    2    2    2   12   -0.000057    0.000056
   -4    2    2    3   12    0.000063   -0.000036
   -4    2    2    4   12    0.000036   -0.000064
   -4    2    2    5   12   -0.000022    0.000021
   -4    2    2    6   12    0.000091    0.000079
   -4    2    2    7   12   -0.000081   -0.000087
   -4    2    2    8   12   -0.000825   -0.000000
   -4    2    2    9   12    0.002322   -0.000000
   -4    2    2   10   12   -0.000055   -0.000118
   -4    2    2   11   12   -0.000055    0.000118
   -4    2    2   12   12    0.001097   -0.000000
   -4    2    2   13   12   -0.000189    0.000043
   -4    2    2   14   12   -0.000189   -0.000042
   -4    2    2    1   13    0.000007    0.000001
   -4    2    2    2   13   -0.000063   -0.000117
   -4    2    2    3   13    0.000057   -0.000001
   -4    2    2    4   13   -0.000036    0.000118
   -4    2    2    5   13   -0.000089    0.000043
   -4    2    2    6   13    0.000023   -0.000002
   -4    2    2    7   13    0.000080   -0.000039
   -4    2    2    8   13   -0.000823    0.000006
   -4    2    2    9   13   -0.000053   -0.000035
   -4    2    2   10   13    0.002326    0.000057
   -4    2    2   11   13   -0.000053   -0.000063
   -4    2    2   12   13   -0.000190    0.000080
   -4    2    2   13   13    0.001097    0.000022
   -4    2    2   14   13   -0.000184   -0.000088
   -4    2    2    1   14    0.000000   -0.000005
   -4    2    2    2   14    0.000116    0.000064
   -4    2    2    3   14   -0.000117    0.000035
   -4    2    2    4   14   -0.000000   -0.000059
   -4    2    2    5   14   -0.000044    0.000088
   -4    2    2    6   14    0.000043   -0.000080
   -4    2    2    7   14    0.000000   -0.000021
   -4    2    2    8   14   -0.000822   -0.000006
   -4    2    2    9   14   -0.000053    0.000035
   -4    2    2   10   14   -0.000053    0.000064
   -4    2    2   11   14    0.002327   -0.000057
   -4    2    2   12   14   -0.000189   -0.000081
   -4    2    2   13   14   -0.000184    0.000088
   -4    2    2   14   14    0.001097   -0.000022
   -3   -3    3    1    1   -0.000761   -0.000000
   -3   -3    3    2    1    0.000000   -0.000000
   -3   -3    3    3    1    0.000000   -0.000000
   -3   -3    3    4    1    0.000000    0.000000
   -3   -3    3    5    1    0.000466    0.000000
   -3   -3    3    6    1    0.000464    0.000067
   -3   -3    3    7    1    0.000466   -0.000067
   -3   -3    3    8    1    0.000001    0.000002
   -3   -3    3    9    1    0.000000   -0.000000
   -3   -3    3   10    1   -0.000000   -0.000000
   -3   -3    3   11    1    0.000000   -0.000000
   -3   -3    3   12    1   -0.000067   -0.000066
   -3   -3    3   13    1    0.000068   -0.000000
   -3   -3    3   14    1   -0.000001    0.000067
   -3   -3    3    1    2    0.000000    0.000000
   -3   -3    3    2    2    0.004006   -0.000000
   -3   -3    3    3    2   -0.000002   -0.000003
   -3   -3    3    4    2   -0.000010    0.000006
   -3   -3    3    5    2   -0.000267   -0.000000
   -3   -3    3    6    2    0.002094   -0.000075
   -3   -3    3    7    2    0.002096    0.000075
   -3   -3    3    8    2    0.000000   -0.000000
   -3   -3    3    9    2   -0.000007   -0.000010
   -3   -3    3   10    2    0.000645    0.000010
   -3   -3    3   11    2    0.000011    0.000643
   -3   -3    3   12    2    0.000249    0.000250
   -3   -3    3   13    2   -0.000018    0.000119
   -3   -3    3   14    2    0.000119   -0.000018
   -3   -3    3    1    3    0.000000    0.000000
   -3   -3    3    2    3   -0.000002    0.000003
   -3   -3    3    3    3    0.003992    0.000000
   -3   -3    3    4    3   -0.000004   -0.000653
   -3   -3    3    5    3    0.002096   -0.000118
   -3   -3    3    6    3   -0.000267   -0.000249
   -3   -3    3    7    3    0.002096    0.000019
   -3   -3    3    8    3    0.000000   -0.000000
   -3   -3    3    9    3   -0.000652   -0.000002
   -3   -3    3   10    3   -0.000002   -0.000006
   -3   -3    3   11    3   -0.000003    0.000004
   -3   -3    3   12    3    0.000018    0.000075
   -3   -3    3   13    3   -0.000249    0.000001
   -3   -3    3   14    3   -0.000117   -0.000075
   -3   -3    3    1    4    0.000000   -0.000000
   -3   -3    3    2    4   -0.000010   -0.000006
   -3   -3    3    3    4   -0.000004    0.000653
   -3   -3    3    4    4    0.004007   -0.000000
   -3   -3    3    5    4    0.002096    0.000118
   -3   -3    3    6    4    0.002094   -0.000018
   -3   -3    3    7    4   -0.000267    0.000250
   -3   -3    3    8    4    0.000000    0.000000
   -3   -3    3    9    4   -0.000002   -0.000633
   -3   -3    3   10    4   -0.000002    0.000011
   -3   -3    3   11    4    0.000002    0.000007
   -3   -3    3   12    4    0.000074    0.000016
   -3   -3    3   13    4   -0.000075   -0.000119
   -3   -3    3   14    4    0.000000   -0.000251
   -3   -3    3    1    5    0.000466   -0.000000
   -3   -3    3    2    5   -0.000267    0.000000
   -3   -3    3    3    5    0.002096    0.000118
   -3   -3    3    4    5    0.002096   -0.000118
   -3   -3    3    5    5    0.003086   -0.000000
   -3   -3    3    6    5    0.000000    0.000000
   -3   -3    3    7    5    0.000003   -0.000001
   -3   -3    3    8    5    0.000066    0.000068
   -3   -3    3    9    5   -0.000249   -0.000250
   -3   -3    3   10    5   -0.000018   -0.000077
   -3   -3    3   11    5   -0.000076   -0.000020
   -3   -3    3   12    5    0.000001    0.000001
   -3   -3    3   13    5   -0.000293   -0.000002
   -3   -3    3   14    5   -0.000002   -0.000294
   -3   -3    3    1    6    0.000464   -0.000067
   -3   -3    3    2    6    0.002094    0.000075
   -3   -3    3    3    6   -0.000267    0.000249
   -3   -3    3    4    6    0.002094    0.000018
   -3   -3    3    5    6    0.000000   -0.000000
   -3   -3    3    6    6    0.003086   -0.000000
   -3   -3    3    7    6    0.000001    0.000294
   -3   -3    3    8    6   -0.000065    0.000001
   -3   -3    3    9    6    0.000019   -0.000119
   -3   -3    3   10    6    0.000250   -0.000001
   -3   -3    3   11    6    0.000075    0.000117
   -3   -3    3   12    6    0.000295   -0.000000
   -3   -3    3   13    6    0.000001    0.000001
   -3   -3    3   14    6    0.000001   -0.000002
   -3   -3    3    1    7    0.000466    0.000067
   -3   -3    3    2    7    0.002096   -0.000075
   -3   -3    3    3    7    0.002096   -0.000019
   -3   -3    3    4    7   -0.000267   -0.000250
   -3   -3    3    5    7    0.000003    0.000001
   -3   -3    3    6    7    0.000001   -0.000294
   -3   -3    3    7    7    0.003086    0.000000
   -3   -3    3    8    7   -0.000001   -0.000067
   -3   -3    3    9    7   -0.000117    0.000020
   -3   -3    3   10    7    0.000119    0.000076
   -3   -3    3   11    7   -0.000001    0.000250
   -3   -3    3   12    7   -0.000000    0.000292
   -3   -3    3   13    7    0.000000   -0.000002
   -3   -3    3   14    7    0.000001    0.000001
   -3   -3    3    1    8    0.000001   -0.000002
   -3   -3    3    2    8    0.000000    0.000000
   -3   -3    3    3    8    0.000000    0.000000
   -3   -3    3    4    8    0.000000   -0.000000
   -3   -3    3    5    8    0.000066   -0.000068
   -3   -3    3    6    8   -0.000065   -0.000001
   -3   -3    3    7    8   -0.000001    0.000067
   -3   -3    3    8    8   -0.000768   -0.000000
   -3   -3    3    9    8    0.000000    0.000000
   -3   -3    3   10    8   -0.000000   -0.000000
   -3   -3    3   11    8   -0.000000    0.000000
   -3   -3    3   12    8    0.000460   -0.000000
   -3   -3    3   13    8    0.000467   -0.000067
   -3   -3    3   14    8    0.000468    0.000067
   -3   -3    3    1    9    0.000000    0.000000
   -3   -3    3    2    9   -0.000007    0.000010
   -3   -3    3    3    9   -0.000652    0.000002
   -3   -3    3    4    9   -0.000002    0.000633
   -3   -3    3    5    9   -0.000249    0.000250
   -3   -3    3    6    9    0.000019    0.000119
   -3   -3    3    7    9   -0.000117   -0.000020
   -3   -3    3    8    9    0.000000   -0.000000
   -3   -3    3    9    9    0.004014   -0.000000
   -3   -3    3   10    9    0.000011   -0.000004
   -3   -3    3   11    9    0.000008   -0.000001
   -3   -3    3   12    9   -0.000269    0.000000
   -3   -3    3   13    9    0.002093    0.000076
   -3   -3    3   14    9    0.002093   -0.000076
   -3   -3    3    1   10   -0.000000    0.000000
   -3   -3    3    2   10    0.000645   -0.000010
   -3   -3    3    3   10   -0.000002    0.000006
   -3   -3    3    4   10   -0.000002   -0.000011
   -3   -3    3    5   10   -0.000018    0.000077
   -3   -3    3    6   10    0.000250    0.000001
   -3   -3    3    7   10    0.000119   -0.000076
   -3   -3    3    8   10   -0.000000    0.000000
   -3   -3    3    9   10    0.000011    0.000004
   -3   -3    3   10   10    0.004016   -0.000000
   -3   -3    3   11   10   -0.000012    0.000636
   -3   -3    3   12   10    0.002093    0.000119
   -3   -3    3   13   10   -0.000268    0.000250
   -3   -3    3   14   10    0.002094   -0.000019
   -3   -3    3    1   11    0.000000    0.000000
   -3   -3    3    2   11    0.000011   -0.000643
   -3   -3    3    3   11   -0.000003   -0.000004
   -3   -3    3    4   11    0.000002   -0.000007
   -3   -3    3    5   11   -0.000076    0.000020
   -3   -3    3    6   11    0.000075   -0.000117
   -3   -3    3    7   11   -0.000001   -0.000250
   -3   -3    3    8   11   -0.000000   -0.000000
   -3   -3    3    9   11    0.000008    0.000001
   -3   -3    3   10   11   -0.000012   -0.000636
   -3   -3    3   11   11    0.004020    0.000000
   -3   -3    3   12   11    0.002094   -0.000118
   -3   -3    3   13   11    0.002094    0.000018
   -3   -3    3   14   11   -0.000268   -0.000251
   -3   -3    3    1   12   -0.000067    0.000066
   -3   -3    3    2   12    0.000249   -0.000250
   -3   -3    3    3   12    0.000018   -0.000075
   -3   -3    3    4   12    0.000074   -0.000016
   -3   -3    3    5   12    0.000001   -0.000001
   -3   -3    3    6   12    0.000295    0.000000
   -3   -3    3    7   12   -0.000000   -0.000292
   -3   -3    3    8   12    0.000460    0.000000
   -3   -3    3    9   12   -0.000269   -0.000000
   -3   -3    3   10   12    0.002093   -0.000119
   -3   -3    3   11   12    0.002094    0.000118
   -3   -3    3   12   12    0.003082   -0.000000
   -3   -3    3   13   12   -0.000003    0.000000
   -3   -3    3   14   12   -0.000002    0.000000
   -3   -3    3    1   13    0.000068    0.000000
   -3   -3    3    2   13   -0.000018   -0.000119
   -3   -3    3    3   13   -0.000249   -0.000001
   -3   -3    3    4   13   -0.000075    0.000119
   -3   -3    3    5   13   -0.000293    0.000002
   -3   -3    3    6   13    0.000001   -0.000001
   -3   -3    3    7   13    0.000000    0.000002
   -3   -3    3    8   13    0.000467    0.000067
   -3   -3    3    9   13    0.002093   -0.000076
   -3   -3    3   10   13   -0.000268   -0.000250
   -3   -3    3   11   13    0.002094   -0.000018
   -3   -3    3   12   13   -0.000003   -0.000000
   -3   -3    3   13   13    0.003082    0.000000
   -3   -3    3   14   13    0.000003   -0.000293
   -3   -3    3    1   14   -0.000001   -0.000067
   -3   -3    3    2   14    0.000119    0.000018
   -3   -3    3    3   14   -0.000117    0.000075
   -3   -3    3    4   14    0.000000    0.000251
   -3   -3    3    5   14   -0.000002    0.000294
   -3   -3    3    6   14    0.000001    0.000002
   -3   -3    3    7   14    0.000001   -0.000001
   -3   -3    3    8   14    0.000468   -0.000067
   -3   -3    3    9   14    0.002093    0.000076
   -3   -3    3   10   14    0.002094    0.000019
   -3   -3    3   11   14   -0.000268    0.000251
   -3   -3    3   12   14   -0.000002   -0.000000
   -3   -3    3   13   14    0.000003    0.000293
   -3   -3    3   14   14    0.003082   -0.000000
   -3   -2    2    1    1   -0.000557    0.000009
   -3   -2    2    2    1    0.000522    0.000017
   -3   -2    2    3    1   -0.001745    0.000152
   -3   -2    2    4    1   -0.000522    0.000006
   -3   -2    2    5    1   -0.001239    0.000021
   -3   -2    2    6    1    0.001239   -0.000032
   -3   -2    2    7    1   -0.000709    0.000007
   -3   -2    2    8    1   -0.000008    0.000001
   -3   -2    2    9    1    0.000004    0.000077
   -3   -2    2   10    1   -0.000154   -0.000000
   -3   -2    2   11    1    0.000018    0.000080
   -3   -2    2   12    1   -0.000028    0.000032
   -3   -2    2   13    1   -0.000027   -0.000022
   -3   -2    2   14    1   -0.000001    0.000006
   -3   -2    2    1    2   -0.000522   -0.000015
   -3   -2    2    2    2    0.002411   -0.000052
   -3   -2    2    3    2   -0.002304   -0.000030
   -3   -2    2    4    2    0.000104    0.000094
   -3   -2    2    5    2    0.000535    0.000020
   -3   -2    2    6    2   -0.000737   -0.000005
   -3   -2    2    7    2    0.002127   -0.000072
   -3   -2    2    8    2   -0.000002    0.000084
   -3   -2    2    9    2    0.000035   -0.000015
   -3   -2    2   10    2    0.000006    0.000155
   -3   -2    2   11    2   -0.000076   -0.000576
   -3   -2    2   12    2   -0.000294    0.000243
   -3   -2    2   13    2    0.000025   -0.000062
   -3   -2    2   14    2   -0.000364    0.000030
   -3   -2    2    1    3   -0.001746    0.000152
   -3   -2    2    2    3    0.002300    0.000032
   -3   -2    2    3    3   -0.009667    0.000283
   -3   -2    2    4    3   -0.002307   -0.000012
   -3   -2    2    5    3   -0.000731   -0.000063
   -3   -2    2    6    3    0.000533    0.000244
   -3   -2    2    7    3   -0.002126   -0.000028
   -3   -2    2    8    3   -0.000153    0.000001
   -3   -2    2    9    3   -0.000012    0.000139
   -3   -2    2   10    3   -0.000286   -0.000006
   -3   -2    2   11    3    0.000025    0.000145
   -3   -2    2   12    3   -0.000024   -0.000007
   -3   -2    2   13    3    0.000295    0.000020
   -3   -2    2   14    3   -0.000363    0.000070
   -3   -2    2    1    4    0.000522   -0.000005
   -3   -2    2    2    4    0.000105    0.000078
   -3   -2    2    3    4    0.002298    0.000014
   -3   -2    2    4    4    0.002413   -0.000045
   -3   -2    2    5    4    0.001598   -0.000182
   -3   -2    2    6    4   -0.001595   -0.000086
   -3   -2    2    7    4    0.001782    0.000103
   -3   -2    2    8    4   -0.000016    0.000081
   -3   -2    2    9    4   -0.000090    0.000589
   -3   -2    2   10    4   -0.000028    0.000156
   -3   -2    2   11    4    0.000056    0.000012
   -3   -2    2   12    4   -0.000099    0.000085
   -3   -2    2   13    4   -0.000100    0.000181
   -3   -2    2   14    4    0.000000    0.000102
   -3   -2    2    1    5   -0.000709    0.000000
   -3   -2    2    2    5    0.001783    0.000001
   -3   -2    2    3    5   -0.002126    0.000364
   -3   -2    2    4    5    0.002127    0.000362
   -3   -2    2    5    5   -0.000414    0.000121
   -3   -2    2    6    5   -0.000187   -0.000008
   -3   -2    2    7    5    0.002182    0.000033
   -3   -2    2    8    5   -0.000006    0.000009
   -3   -2    2    9    5   -0.000101    0.000103
   -3   -2    2   10    5    0.000030    0.000069
   -3   -2    2   11    5    0.000070    0.000030
   -3   -2    2   12    5   -0.000005    0.000002
   -3   -2    2   13    5    0.000213    0.000099
   -3   -2    2   14    5   -0.000036   -0.000173
   -3   -2    2    1    6    0.001239    0.000028
   -3   -2    2    2    6   -0.001595    0.000100
   -3   -2    2    3    6    0.000533   -0.000294
   -3   -2    2    4    6   -0.000737   -0.000024
   -3   -2    2    5    6    0.000188    0.000008
   -3   -2    2    6    6    0.000256   -0.000001
   -3   -2    2    7    6   -0.000187   -0.000211
   -3   -2    2    8    6    0.000033   -0.000022
   -3   -2    2    9    6    0.000086    0.000181
   -3   -2    2   10    6   -0.000244    0.000018
   -3   -2    2   11    6    0.000006   -0.000064
   -3   -2    2   12    6   -0.000211    0.000101
   -3   -2    2   13    6    0.000001    0.000001
   -3   -2    2   14    6    0.000009    0.000100
   -3   -2    2    1    7   -0.001239    0.000028
   -3   -2    2    2    7    0.001598    0.000099
   -3   -2    2    3    7   -0.000731    0.000024
   -3   -2    2    4    7    0.000535    0.000294
   -3   -2    2    5    7    0.002182    0.000035
   -3   -2    2    6    7    0.000188    0.000211
   -3   -2    2    7    7   -0.000415    0.000007
   -3   -2    2    8    7   -0.000022    0.000032
   -3   -2    2    9    7    0.000182    0.000086
   -3   -2    2   10    7    0.000064   -0.000004
   -3   -2    2   11    7   -0.000020    0.000244
   -3   -2    2   12    7   -0.000034    0.000171
   -3   -2    2   13    7   -0.000008    0.000099
   -3   -2    2   14    7   -0.000122   -0.000001
   -3   -2    2    1    8    0.000009   -0.000001
   -3   -2    2    2    8   -0.000009    0.000084
   -3   -2    2    3    8    0.000154    0.000001
   -3   -2    2    4    8   -0.000016    0.000081
   -3   -2    2    5    8    0.000027    0.000031
   -3   -2    2    6    8    0.000029   -0.000022
   -3   -2    2    7    8   -0.000001    0.000007
   -3   -2    2    8    8   -0.000564   -0.000008
   -3   -2    2    9    8    0.000519   -0.000016
   -3   -2    2   10    8   -0.001740   -0.000157
   -3   -2    2   11    8   -0.000520   -0.000006
   -3   -2    2   12    8   -0.001241   -0.000022
   -3   -2    2   13    8    0.001241    0.000031
   -3   -2    2   14    8   -0.000710   -0.000006
   -3   -2    2    1    9    0.000007    0.000078
   -3   -2    2    2    9   -0.000055    0.000012
   -3   -2    2    3    9   -0.000013    0.000145
   -3   -2    2    4    9    0.000084   -0.000590
   -3   -2    2    5    9    0.000294    0.000244
   -3   -2    2    6    9   -0.000023   -0.000064
   -3   -2    2    7    9    0.000363    0.000030
   -3   -2    2    8    9   -0.000519    0.000016
   -3   -2    2    9    9    0.002418    0.000054
   -3   -2    2   10    9   -0.002285    0.000021
   -3   -2    2   11    9    0.000126   -0.000092
   -3   -2    2   12    9    0.000532   -0.000018
   -3   -2    2   13    9   -0.000736    0.000006
   -3   -2    2   14    9    0.002126    0.000070
   -3   -2    2    1   10    0.000154   -0.000000
   -3   -2    2    2   10    0.000002    0.000129
   -3   -2    2    3   10    0.000283    0.000008
   -3   -2    2    4   10   -0.000029    0.000130
   -3   -2    2    5   10    0.000023   -0.000004
   -3   -2    2    6   10   -0.000294    0.000019
   -3   -2    2    7   10    0.000363    0.000072
   -3   -2    2    8   10   -0.001749   -0.000156
   -3   -2    2    9   10    0.002310   -0.000021
   -3   -2    2   10   10   -0.009633   -0.000288
   -3   -2    2   11   10   -0.002312   -0.000008
   -3   -2    2   12   10   -0.000736    0.000063
   -3   -2    2   13   10    0.000531   -0.000245
   -3   -2    2   14   10   -0.002126    0.000029
   -3   -2    2    1   11    0.000015    0.000081
   -3   -2    2    2   11    0.000102    0.000579
   -3   -2    2    3   11    0.000022    0.000137
   -3   -2    2    4   11   -0.000050   -0.000010
   -3   -2    2    5   11    0.000099    0.000088
   -3   -2    2    6   11    0.000098    0.000183
   -3   -2    2    7   11   -0.000001    0.000103
   -3   -2    2    8   11    0.000521    0.000006
   -3   -2    2    9   11    0.000126   -0.000090
   -3   -2    2   10   11    0.002283    0.000007
   -3   -2    2   11   11    0.002427    0.000048
   -3   -2    2   12   11    0.001596    0.000181
   -3   -2    2   13   11   -0.001596    0.000086
   -3   -2    2   14   11    0.001778   -0.000102
   -3   -2    2    1   12    0.000007    0.000005
   -3   -2    2    2   12    0.000103    0.000101
   -3   -2    2    3   12   -0.000029    0.000070
   -3   -2    2    4   12   -0.000071    0.000029
   -3   -2    2    5   12    0.000008   -0.000003
   -3   -2    2    6   12   -0.000211    0.000101
   -3   -2    2    7   12    0.000034   -0.000172
   -3   -2    2    8   12   -0.000711   -0.000000
   -3   -2    2    9   12    0.001781    0.000000
   -3   -2    2   10   12   -0.002126   -0.000364
   -3   -2    2   11   12    0.002126   -0.000365
   -3   -2    2   12   12   -0.000417   -0.000121
   -3   -2    2   13   12   -0.000189    0.000009
   -3   -2    2   14   12    0.002175   -0.000034
   -3   -2    2    1   13   -0.000032   -0.000021
   -3   -2    2    2   13   -0.000087    0.000181
   -3   -2    2    3   13    0.000244    0.000019
   -3   -2    2    4   13   -0.000005   -0.000063
   -3   -2    2    5   13    0.000213    0.000104
   -3   -2    2    6   13    0.000000   -0.000001
   -3   -2    2    7   13   -0.000008    0.000104
   -3   -2    2    8   13    0.001240   -0.000029
   -3   -2    2    9   13   -0.001598   -0.000100
   -3   -2    2   10   13    0.000534    0.000291
   -3   -2    2   11   13   -0.000734    0.000024
   -3   -2    2   12   13    0.000186   -0.000009
   -3   -2    2   13   13    0.000252   -0.000000
   -3   -2    2   14   13   -0.000186    0.000214
   -3   -2    2    1   14    0.000020    0.000031
   -3   -2    2    2   14   -0.000181    0.000088
   -3   -2    2    3   14   -0.000062   -0.000007
   -3   -2    2    4   14    0.000019    0.000245
   -3   -2    2    5   14    0.000032    0.000173
   -3   -2    2    6   14    0.000009    0.000102
   -3   -2    2    7   14    0.000121    0.000002
   -3   -2    2    8   14   -0.001240   -0.000028
   -3   -2    2    9   14    0.001595   -0.000100
   -3   -2    2   10   14   -0.000736   -0.000024
   -3   -2    2   11   14    0.000534   -0.000292
   -3   -2    2   12   14    0.002175   -0.000034
   -3   -2    2   13   14    0.000190   -0.000214
   -3   -2    2   14   14   -0.000419   -0.000005
   -3   -2    3    1    1   -0.000557   -0.000008
   -3   -2    3    2    1    0.000519   -0.000015
[...]
    4   -1   -2    8   14    0.002264   -0.000128
    4   -1   -2    9   14    0.000925    0.000050
    4   -1   -2   10   14    0.000924    0.000013
    4   -1   -2   11   14    0.000037    0.000009
    4   -1   -2   12   14   -0.000002   -0.000157
    4   -1   -2   13   14    0.000003    0.000170
    4   -1   -2   14   14   -0.001901    0.000000
    4   -1   -1    1    1    0.000947    0.000000
    4   -1   -1    2    1    0.000000    0.000050
    4   -1   -1    3    1    0.000765    0.000000
    4   -1   -1    4    1    0.000000    0.000107
    4   -1   -1    5    1    0.004732    0.000000
    4   -1   -1    6    1   -0.004732    0.000023
    4   -1   -1    7    1    0.004732    0.000022
    4   -1   -1    8    1    0.000001    0.000001
    4   -1   -1    9    1    0.000106    0.000001
    4   -1   -1   10    1   -0.000001    0.000001
    4   -1   -1   11    1    0.000051    0.000001
    4   -1   -1   12    1    0.000023   -0.000024
    4   -1   -1   13    1    0.000022   -0.000000
    4   -1   -1   14    1    0.000000    0.000023
    4   -1   -1    1    2    0.000000   -0.000178
    4   -1   -1    2    2    0.000670    0.000004
    4   -1   -1    3    2   -0.000002    0.000015
    4   -1   -1    4    2   -0.005930    0.000014
    4   -1   -1    5    2   -0.002248    0.000002
    4   -1   -1    6    2   -0.000521   -0.000129
    4   -1   -1    7    2    0.000522   -0.000123
    4   -1   -1    8    2    0.000013   -0.000004
    4   -1   -1    9    2   -0.000014   -0.000241
    4   -1   -1   10    2    0.000223    0.000015
    4   -1   -1   11    2    0.000020   -0.000185
    4   -1   -1   12    2    0.000343   -0.000347
    4   -1   -1   13    2    0.000036    0.000034
    4   -1   -1   14    2    0.000033    0.000029
    4   -1   -1    1    3    0.002566   -0.000000
    4   -1   -1    2    3   -0.000004   -0.000348
    4   -1   -1    3    3    0.002027    0.000000
    4   -1   -1    4    3   -0.000008   -0.000346
    4   -1   -1    5    3   -0.000523    0.000030
    4   -1   -1    6    3   -0.002252   -0.000342
    4   -1   -1    7    3   -0.000522   -0.000038
    4   -1   -1    8    3    0.000000    0.000003
    4   -1   -1    9    3   -0.000344   -0.000006
    4   -1   -1   10    3   -0.000002   -0.000011
    4   -1   -1   11    3   -0.000361    0.000007
    4   -1   -1   12    3   -0.000040   -0.000127
    4   -1   -1   13    3   -0.000341    0.000001
    4   -1   -1   14    3    0.000031    0.000124
    4   -1   -1    1    4    0.000001    0.000011
    4   -1   -1    2    4   -0.005930   -0.000014
    4   -1   -1    3    4   -0.000006    0.000238
    4   -1   -1    4    4    0.000672   -0.000004
    4   -1   -1    5    4    0.000524    0.000028
    4   -1   -1    6    4   -0.000521    0.000042
    4   -1   -1    7    4   -0.002248    0.000341
    4   -1   -1    8    4   -0.000179   -0.000004
    4   -1   -1    9    4   -0.000004    0.000201
    4   -1   -1   10    4    0.000021    0.000014
    4   -1   -1   11    4    0.000002    0.000234
    4   -1   -1   12    4   -0.000127   -0.000035
    4   -1   -1   13    4   -0.000125   -0.000036
    4   -1   -1   14    4    0.000001    0.000347
    4   -1   -1    1    5    0.002545   -0.000113
    4   -1   -1    2    5   -0.002106   -0.000267
    4   -1   -1    3    5    0.002114    0.000065
    4   -1   -1    4    5   -0.001135    0.000253
    4   -1   -1    5    5   -0.000476    0.000000
    4   -1   -1    6    5    0.000001   -0.000093
    4   -1   -1    7    5    0.000031   -0.000001
    4   -1   -1    8    5   -0.000153   -0.000160
    4   -1   -1    9    5   -0.000153   -0.000123
    4   -1   -1   10    5    0.000037    0.000224
    4   -1   -1   11    5   -0.000099    0.000084
    4   -1   -1   12    5    0.000001   -0.000027
    4   -1   -1   13    5   -0.000149   -0.000002
    4   -1   -1   14    5   -0.000002    0.000028
    4   -1   -1    1    6    0.003511   -0.000084
    4   -1   -1    2    6   -0.002877    0.000208
    4   -1   -1    3    6   -0.001934    0.000507
    4   -1   -1    4    6   -0.002877    0.000016
    4   -1   -1    5    6    0.000001    0.000157
    4   -1   -1    6    6   -0.001895    0.000000
    4   -1   -1    7    6    0.000001    0.000174
    4   -1   -1    8    6   -0.000083    0.000003
    4   -1   -1    9    6    0.000016   -0.000202
    4   -1   -1   10    6    0.000507   -0.000000
    4   -1   -1   11    6    0.000209    0.000203
    4   -1   -1   12    6    0.000174    0.000000
    4   -1   -1   13    6   -0.000000    0.000000
    4   -1   -1   14    6    0.000158   -0.000001
    4   -1   -1    1    7    0.002545   -0.000153
    4   -1   -1    2    7   -0.001135   -0.000098
    4   -1   -1    3    7    0.002114    0.000034
    4   -1   -1    4    7   -0.002106   -0.000149
    4   -1   -1    5    7    0.000031    0.000001
    4   -1   -1    6    7    0.000001   -0.000151
    4   -1   -1    7    7   -0.000476   -0.000000
    4   -1   -1    8    7   -0.000115    0.000158
    4   -1   -1    9    7    0.000255   -0.000081
    4   -1   -1   10    7    0.000061   -0.000219
    4   -1   -1   11    7   -0.000260    0.000124
    4   -1   -1   12    7    0.000001   -0.000028
    4   -1   -1   13    7   -0.000093   -0.000002
    4   -1   -1   14    7   -0.000001    0.000027
    4   -1   -1    1    8    0.000001   -0.000001
    4   -1   -1    2    8   -0.000106    0.000003
    4   -1   -1    3    8   -0.000000   -0.000001
    4   -1   -1    4    8   -0.000050    0.000002
    4   -1   -1    5    8   -0.000023   -0.000023
    4   -1   -1    6    8   -0.000023   -0.000001
    4   -1   -1    7    8    0.000001    0.000023
    4   -1   -1    8    8    0.000947    0.000000
    4   -1   -1    9    8    0.000001   -0.000051
    4   -1   -1   10    8    0.000762   -0.000000
    4   -1   -1   11    8   -0.000001   -0.000103
    4   -1   -1   12    8    0.004733   -0.000000
    4   -1   -1   13    8   -0.004733   -0.000023
    4   -1   -1   14    8    0.004733   -0.000023
    4   -1   -1    1    9   -0.000012   -0.000002
    4   -1   -1    2    9   -0.000021   -0.000192
    4   -1   -1    3    9   -0.000233    0.000004
    4   -1   -1    4    9   -0.000008   -0.000193
    4   -1   -1    5    9   -0.000344   -0.000344
    4   -1   -1    6    9   -0.000036    0.000037
    4   -1   -1    7    9   -0.000034    0.000034
    4   -1   -1    8    9   -0.000003    0.000181
    4   -1   -1    9    9    0.000672   -0.000001
    4   -1   -1   10    9    0.000019   -0.000038
    4   -1   -1   11    9   -0.005896   -0.000002
    4   -1   -1   12    9   -0.002254    0.000001
    4   -1   -1   13    9   -0.000523    0.000123
    4   -1   -1   14    9    0.000518    0.000125
    4   -1   -1    1   10    0.000000   -0.000003
    4   -1   -1    2   10    0.000329   -0.000026
    4   -1   -1    3   10   -0.000002    0.000010
    4   -1   -1    4   10    0.000351   -0.000026
    4   -1   -1    5   10    0.000037   -0.000130
    4   -1   -1    6   10    0.000344    0.000002
    4   -1   -1    7   10   -0.000032    0.000119
    4   -1   -1    8   10    0.002558   -0.000000
    4   -1   -1    9   10    0.000021    0.000363
    4   -1   -1   10   10    0.002079   -0.000000
    4   -1   -1   11   10   -0.000025    0.000307
    4   -1   -1   12   10   -0.000525   -0.000033
    4   -1   -1   13   10   -0.002253    0.000344
    4   -1   -1   14   10   -0.000518    0.000034
    4   -1   -1    1   11    0.000180    0.000000
    4   -1   -1    2   11    0.000025    0.000176
    4   -1   -1    3   11   -0.000027   -0.000008
    4   -1   -1    4   11    0.000009    0.000199
    4   -1   -1    5   11    0.000130   -0.000035
    4   -1   -1    6   11    0.000122   -0.000030
    4   -1   -1    7   11    0.000003    0.000340
    4   -1   -1    8   11    0.000004   -0.000017
    4   -1   -1    9   11   -0.005892    0.000002
    4   -1   -1   10   11   -0.000021   -0.000202
    4   -1   -1   11   11    0.000687    0.000001
    4   -1   -1   12   11    0.000527   -0.000034
    4   -1   -1   13   11   -0.000526   -0.000033
    4   -1   -1   14   11   -0.002251   -0.000344
    4   -1   -1    1   12    0.000151   -0.000161
    4   -1   -1    2   12    0.000157   -0.000125
    4   -1   -1    3   12   -0.000040    0.000228
    4   -1   -1    4   12    0.000101    0.000080
    4   -1   -1    5   12    0.000001   -0.000031
    4   -1   -1    6   12    0.000151    0.000001
    4   -1   -1    7   12    0.000001    0.000029
    4   -1   -1    8   12    0.002544    0.000114
    4   -1   -1    9   12   -0.002100    0.000262
    4   -1   -1   10   12    0.002111   -0.000060
    4   -1   -1   11   12   -0.001134   -0.000251
    4   -1   -1   12   12   -0.000478    0.000000
    4   -1   -1   13   12   -0.000001    0.000095
    4   -1   -1   14   12    0.000029    0.000000
    4   -1   -1    1   13    0.000084   -0.000001
    4   -1   -1    2   13   -0.000014   -0.000202
    4   -1   -1    3   13   -0.000507   -0.000002
    4   -1   -1    4   13   -0.000209    0.000205
    4   -1   -1    5   13   -0.000172    0.000003
    4   -1   -1    6   13   -0.000000   -0.000000
    4   -1   -1    7   13   -0.000157    0.000003
    4   -1   -1    8   13    0.003514    0.000085
    4   -1   -1    9   13   -0.002875   -0.000209
    4   -1   -1   10   13   -0.001939   -0.000509
    4   -1   -1   11   13   -0.002875   -0.000013
    4   -1   -1   12   13   -0.000001   -0.000158
    4   -1   -1   13   13   -0.001903   -0.000000
    4   -1   -1   14   13    0.000002   -0.000170
    4   -1   -1    1   14    0.000113    0.000156
    4   -1   -1    2   14   -0.000256   -0.000076
    4   -1   -1    3   14   -0.000060   -0.000228
    4   -1   -1    4   14    0.000261    0.000126
    4   -1   -1    5   14   -0.000002   -0.000028
    4   -1   -1    6   14    0.000094    0.000001
    4   -1   -1    7   14   -0.000001    0.000030
    4   -1   -1    8   14    0.002549    0.000149
    4   -1   -1    9   14   -0.001137    0.000098
    4   -1   -1   10   14    0.002113   -0.000037
    4   -1   -1   11   14   -0.002097    0.000155
    4   -1   -1   12   14    0.000029   -0.000000
    4   -1   -1   13   14    0.000002    0.000148
    4   -1   -1   14   14   -0.000479   -0.000000
    4    0   -2    1    1   -0.004472    0.000000
    4    0   -2    2    1   -0.003918   -0.000001
    4    0   -2    3    1   -0.003915   -0.000050
    4    0   -2    4    1    0.003919   -0.000051
    4    0   -2    5    1   -0.001500   -0.000229
    4    0   -2    6    1   -0.001500    0.000314
    4    0   -2    7    1   -0.003083    0.000027
    4    0   -2    8    1   -0.000001   -0.000001
    4    0   -2    9    1   -0.000050    0.000053
    4    0   -2   10    1    0.000050   -0.000000
    4    0   -2   11    1   -0.000000    0.000052
    4    0   -2   12    1   -0.000082   -0.000315
    4    0   -2   13    1    0.000081    0.000228
    4    0   -2   14    1    0.000000   -0.000027
    4    0   -2    1    2   -0.003439   -0.000001
    4    0   -2    2    2    0.001665    0.000000
    4    0   -2    3    2   -0.001870   -0.000152
    4    0   -2    4    2    0.001852   -0.000135
    4    0   -2    5    2   -0.000067   -0.000045
    4    0   -2    6    2    0.001344    0.000122
    4    0   -2    7    2   -0.000554    0.000249
    4    0   -2    8    2   -0.000234    0.000240
    4    0   -2    9    2   -0.000190    0.000159
    4    0   -2   10    2   -0.000051   -0.000167
    4    0   -2   11    2   -0.000167   -0.000058
    4    0   -2   12    2    0.000115   -0.000148
    4    0   -2   13    2   -0.000091    0.000257
    4    0   -2   14    2    0.000082    0.000149
    4    0   -2    1    3   -0.003435   -0.000234
    4    0   -2    2    3   -0.001870    0.000192
    4    0   -2    3    3    0.001637   -0.000176
    4    0   -2    4    3    0.001862    0.000039
    4    0   -2    5    3    0.001348   -0.000260
    4    0   -2    6    3   -0.000068    0.000147
    4    0   -2    7    3   -0.000554   -0.000144
    4    0   -2    8    3    0.000235    0.000002
    4    0   -2    9    3    0.000040    0.000134
    4    0   -2   10    3    0.000175   -0.000008
    4    0   -2   11    3    0.000181    0.000144
    4    0   -2   12    3    0.000091   -0.000123
    4    0   -2   13    3   -0.000115    0.000045
    4    0   -2   14    3   -0.000080   -0.000254
    4    0   -2    1    4    0.003438   -0.000235
    4    0   -2    2    4    0.001852    0.000173
    4    0   -2    3    4    0.001862   -0.000037
    4    0   -2    4    4    0.001669    0.000176
    4    0   -2    5    4    0.001196    0.000350
    4    0   -2    6    4    0.001196   -0.000354
    4    0   -2    7    4    0.002061   -0.000070
    4    0   -2    8    4    0.000001    0.000241
    4    0   -2    9    4    0.000140    0.000073
    4    0   -2   10    4   -0.000148   -0.000167
    4    0   -2   11    4    0.000005   -0.000163
    4    0   -2   12    4    0.000123    0.000360
    4    0   -2   13    4   -0.000123   -0.000355
    4    0   -2   14    4    0.000001    0.000073
    4    0   -2    1    5   -0.000118   -0.000108
    4    0   -2    2    5   -0.001497    0.000125
    4    0   -2    3    5    0.002655    0.000023
    4    0   -2    4    5    0.002799   -0.000062
    4    0   -2    5    5    0.001099    0.000001
    4    0   -2    6    5   -0.000187   -0.000079
    4    0   -2    7    5    0.000190   -0.000081
    4    0   -2    8    5    0.000151    0.000105
    4    0   -2    9    5    0.000366    0.000288
    4    0   -2   10    5   -0.000022   -0.000147
    4    0   -2   11    5   -0.000109   -0.000116
    4    0   -2   12    5   -0.000021    0.000023
    4    0   -2   13    5   -0.000088    0.000040
    4    0   -2   14    5    0.000040   -0.000089
    4    0   -2    1    6   -0.000118   -0.000109
    4    0   -2    2    6    0.002652    0.000144
    4    0   -2    3    6   -0.001494   -0.000285
    4    0   -2    4    6    0.002804    0.000114
    4    0   -2    5    6   -0.000186   -0.000044
    4    0   -2    6    6    0.001101   -0.000023
    4    0   -2    7    6    0.000187    0.000090
    4    0   -2    8    6   -0.000153    0.000112
    4    0   -2    9    6    0.000022   -0.000021
    4    0   -2   10    6   -0.000366   -0.000126
    4    0   -2   11    6    0.000108    0.000066
    4    0   -2   12    6    0.000090    0.000080
    4    0   -2   13    6    0.000023    0.000001
    4    0   -2   14    6   -0.000042    0.000080
    4    0   -2    1    7    0.000932    0.000164
    4    0   -2    2    7    0.000322   -0.000211
    4    0   -2    3    7    0.000324    0.000057
    4    0   -2    4    7    0.000616   -0.000020
    4    0   -2    5    7    0.000191   -0.000041
    4    0   -2    6    7    0.000189   -0.000091
    4    0   -2    7    7    0.001098    0.000023
    4    0   -2    8    7   -0.000001   -0.000160
    4    0   -2    9    7   -0.000186   -0.000054
    4    0   -2   10    7    0.000188    0.000210
    4    0   -2   11    7   -0.000001    0.000020
    4    0   -2   12    7    0.000081    0.000088
    4    0   -2   13    7   -0.000079    0.000042
    4    0   -2   14    7   -0.000001   -0.000023
    4    0   -2    1    8   -0.000001    0.000001
    4    0   -2    2    8    0.000053    0.000052
    4    0   -2    3    8   -0.000051   -0.000000
    4    0   -2    4    8    0.000001    0.000053
    4    0   -2    5    8    0.000081   -0.000314
    4    0   -2    6    8   -0.000083    0.000229
    4    0   -2    7    8    0.000001   -0.000026
    4    0   -2    8    8   -0.004471    0.000000
    4    0   -2    9    8   -0.003916   -0.000000
    4    0   -2   10    8   -0.003921    0.000052
    4    0   -2   11    8    0.003917    0.000052
    4    0   -2   12    8   -0.001500    0.000228
    4    0   -2   13    8   -0.001499   -0.000314
    4    0   -2   14    8   -0.003085   -0.000027
    4    0   -2    1    9    0.000236    0.000231
    4    0   -2    2    9    0.000162    0.000193
    4    0   -2    3    9    0.000040   -0.000176
    4    0   -2    4    9    0.000179   -0.000071
    4    0   -2    5    9   -0.000114   -0.000145
    4    0   -2    6    9    0.000092    0.000258
    4    0   -2    7    9   -0.000081    0.000148
    4    0   -2    8    9   -0.003438   -0.000000
    4    0   -2    9    9    0.001670   -0.000000
    4    0   -2   10    9   -0.001853    0.000133
    4    0   -2   11    9    0.001879    0.000138
    4    0   -2   12    9   -0.000068    0.000045
    4    0   -2   13    9    0.001347   -0.000121
    4    0   -2   14    9   -0.000555   -0.000255
    4    0   -2    1   10   -0.000234   -0.000002
    4    0   -2    2   10   -0.000052    0.000126
    4    0   -2    3   10   -0.000178    0.000008
    4    0   -2    4   10   -0.000189    0.000127
    4    0   -2    5   10   -0.000093   -0.000120
    4    0   -2    6   10    0.000115    0.000046
    4    0   -2    7   10    0.000081   -0.000255
    4    0   -2    8   10   -0.003434    0.000236
    4    0   -2    9   10   -0.001853   -0.000173
    4    0   -2   10   10    0.001680    0.000176
    4    0   -2   11   10    0.001850   -0.000065
    4    0   -2   12   10    0.001346    0.000257
    4    0   -2   13   10   -0.000071   -0.000145
    4    0   -2   14   10   -0.000554    0.000149
    4    0   -2    1   11    0.000002    0.000230
    4    0   -2    2   11   -0.000128    0.000057
    4    0   -2    3   11    0.000142   -0.000187
    4    0   -2    4   11    0.000006   -0.000188
    4    0   -2    5   11   -0.000122    0.000360
    4    0   -2    6   11    0.000123   -0.000355
    4    0   -2    7   11    0.000001    0.000066
    4    0   -2    8   11    0.003440    0.000236
    4    0   -2    9   11    0.001879   -0.000180
    4    0   -2   10   11    0.001851    0.000066
    4    0   -2   11   11    0.001682   -0.000175
    4    0   -2   12   11    0.001194   -0.000356
    4    0   -2   13   11    0.001193    0.000361
    4    0   -2   14   11    0.002059    0.000070
    4    0   -2    1   12   -0.000154    0.000105
    4    0   -2    2   12   -0.000363    0.000288
    4    0   -2    3   12    0.000021   -0.000145
    4    0   -2    4   12    0.000112   -0.000116
    4    0   -2    5   12    0.000024    0.000020
    4    0   -2    6   12    0.000091    0.000042
    4    0   -2    7   12   -0.000043   -0.000086
    4    0   -2    8   12   -0.000117    0.000113
    4    0   -2    9   12   -0.001494   -0.000125
    4    0   -2   10   12    0.002652   -0.000021
    4    0   -2   11   12    0.002805    0.000067
    4    0   -2   12   12    0.001098    0.000000
    4    0   -2   13   12   -0.000188    0.000082
    4    0   -2   14   12    0.000184    0.000081
    4    0   -2    1   13    0.000152    0.000114
    4    0   -2    2   13   -0.000021   -0.000021
    4    0   -2    3   13    0.000365   -0.000126
    4    0   -2    4   13   -0.000111    0.000067
    4    0   -2    5   13   -0.000089    0.000083
    4    0   -2    6   13   -0.000023   -0.000001
    4    0   -2    7   13    0.000044    0.000083
    4    0   -2    8   13   -0.000113    0.000105
    4    0   -2    9   13    0.002651   -0.000146
    4    0   -2   10   13   -0.001497    0.000286
    4    0   -2   11   13    0.002798   -0.000116
    4    0   -2   12   13   -0.000190    0.000042
    4    0   -2   13   13    0.001096    0.000021
    4    0   -2   14   13    0.000190   -0.000088
    4    0   -2    1   14   -0.000001   -0.000168
    4    0   -2    2   14    0.000189   -0.000055
    4    0   -2    3   14   -0.000188    0.000209
    4    0   -2    4   14   -0.000000    0.000023
    4    0   -2    5   14   -0.000081    0.000088
    4    0   -2    6   14    0.000081    0.000042
    4    0   -2    7   14    0.000000   -0.000021
    4    0   -2    8   14    0.000939   -0.000164
    4    0   -2    9   14    0.000322    0.000209
    4    0   -2   10   14    0.000320   -0.000055
    4    0   -2   11   14    0.000616    0.000022
    4    0   -2   12   14    0.000185    0.000042
    4    0   -2   13   14    0.000189    0.000088
    4    0   -2   14   14    0.001096   -0.000022
